 Gaussian 09, Revision D.01,
 Gaussian 09:  ES64L-G09RevD.01 24-Apr-2013

 ----------------------------------
 # opt lsda/3-21g geom=connectivity
 ----------------------------------

 -------------------
 Title Card Required
 -------------------
 Symbolic Z-matrix:
 Charge =  0 Multiplicity = 1

 SCF Done:  E(RS-VWN) =  -40.0702992749     A.U. after   10 cycles
 SCF Done:  E(RS-VWN) =  -40.0727178314     A.U. after    9 cycles
 Optimization completed.
    -- Stationary point found.

                         Standard orientation:
 ---------------------------------------------------------------------
 Center     Atomic      Atomic             Coordinates (Angstroms)
 Number     Number       Type             X           Y           Z
 ---------------------------------------------------------------------
      1          6           0        0.000000    0.000000    0.000000
      2          1           0        0.635199    0.635199    0.635199
      3          1           0       -0.635199   -0.635199    0.635199
      4          1           0       -0.635199    0.635199   -0.635199
      5          1           0        0.635199   -0.635199   -0.635199
 ---------------------------------------------------------------------

 The electronic state is 1-A1.
 Alpha  occ. eigenvalues --   -9.71102  -0.63050  -0.35617  -0.35617  -0.35617
 Alpha virt. eigenvalues --    0.10159   0.14265   0.14265   0.14265   0.64361
 Alpha virt. eigenvalues --    0.64361   0.64361   0.95790   0.98916   0.98916
 Alpha virt. eigenvalues --    0.98916   1.61585

 Mulliken charges:
               1
     1  C   -0.874253
     2  H    0.218563
     3  H    0.218563
     4  H    0.218563
     5  H    0.218563
 Sum of Mulliken charges =   0.00000

 Dipole moment (field-independent basis, Debye):
    X=              0.0000    Y=              0.0000    Z=              0.0000  Tot=              0.0000
 Quadrupole moment (field-independent basis, Debye-Ang):
   XX=             -8.2458   YY=             -8.2458   ZZ=             -8.2458
   XY=              0.0000   XZ=              0.0000   YZ=              0.0000

 Normal termination of Gaussian 09 at Sat Jun  8 18:54:22 2019.
