 Gaussian 09, Revision D.01,
 Gaussian 09:  ES64L-G09RevD.01 24-Apr-2013

 -------------------------------------------------
 # opt freq b3lyp/3-21g pop=full geom=connectivity
 -------------------------------------------------

 -------------
 Molecule Name
 -------------
 Symbolic Z-matrix:
 Charge =  0 Multiplicity = 1

 SCF Done:  E(RB3LYP) =  -40.3001610422     A.U. after   10 cycles
 SCF Done:  E(RB3LYP) =  -40.3015937585     A.U. after    9 cycles
 Optimization completed.
    -- Stationary point found.
 Normal termination of Gaussian 09 at Tue Jun 18 14:31:58 2019.

 -----------------------------------------------------------------
 #N Geom=AllCheck Guess=TCheck SCRF=Check GenChk RB3LYP/3-21G Freq
 -----------------------------------------------------------------

 Structure from the checkpoint file:  "freq.chk"
 -------------
 Molecule Name
 -------------
 Charge =  0 Multiplicity = 1

                         Standard orientation:
 ---------------------------------------------------------------------
 Center     Atomic      Atomic             Coordinates (Angstroms)
 Number     Number       Type             X           Y           Z
 ---------------------------------------------------------------------
      1          6           0        0.000000    0.000008    0.000000
      2          1           0        0.832655    0.708831    0.000000
      3          1           0       -0.611697    0.156212    0.892844
      4          1           0       -0.611697    0.156212   -0.892844
      5          1           0        0.390738   -1.021304    0.000000
 ---------------------------------------------------------------------

 SCF Done:  E(RB3LYP) =  -40.3015937585     A.U. after    1 cycles

 The electronic state is 1-A'.
 Alpha  occ. eigenvalues --  -10.09993  -0.68985  -0.38882  -0.38882  -0.38881
 Alpha virt. eigenvalues --    0.14583   0.19391   0.19392   0.19392   0.70792
 Alpha virt. eigenvalues --    0.70793   0.70793   1.02427   1.05543   1.05544
 Alpha virt. eigenvalues --    1.05544   1.69676

 Mulliken charges:
               1
     1  C   -0.764339
     2  H    0.191085
     3  H    0.191086
     4  H    0.191086
     5  H    0.191084
 Sum of Mulliken charges =   0.00000

 Dipole moment (field-independent basis, Debye):
    X=              0.0000    Y=              0.0000    Z=              0.0000  Tot=              0.0000
 Quadrupole moment (field-independent basis, Debye-Ang):
   XX=             -8.2530   YY=             -8.2531   ZZ=             -8.2530
   XY=              0.0001   XZ=              0.0000   YZ=              0.0000

  Exact polarizability:  11.525   0.000  11.525   0.000   0.000  11.525
 Approx polarizability:  13.481   0.000  13.481   0.000   0.000  13.481

                      1                      2                      3
                     A'                     A"                     A'
 Frequencies --   1412.6587              1413.0455              1413.1010
 Red. masses --      1.1830                 1.1830                 1.1830
 Frc consts  --      1.3909                 1.3917                 1.3918
 IR Inten    --     24.6233                24.6218                24.6189

                      4                      5                      6
                     A"                     A'                     A'
 Frequencies --   1639.1826              1639.4257              3048.5647
 Red. masses --      1.0078                 1.0078                 1.0078
 Frc consts  --      1.5955                 1.5959                 5.5186
 IR Inten    --      0.0000                 0.0000                 0.0000

                      7                      8                      9
                     A'                     A"                     A'
 Frequencies --   3148.2456              3148.3463              3148.3963
 Red. masses --      1.0982                 1.0982                 1.0982
 Frc consts  --      6.4130                 6.4135                 6.4137
 IR Inten    --     24.6075                24.6003                24.6003

 - Thermochemistry -
 -------------------
 Temperature   298.150 Kelvin.  Pressure   1.00000 Atm.
 Atom     1 has atomic number  6 and mass  12.00000

 Molecular mass:    16.03130 amu.
 Principal axes and moments of inertia in atomic units:
                           1         2         3
     Eigenvalues --    11.47587  11.47596  11.47618
           X            0.81418   0.00000  -0.58061
           Y            0.58061   0.00000   0.81418
           Z            0.00000   1.00000   0.00000
 This molecule is an asymmetric top.
 Rotational symmetry number  1.
 Rotational temperatures (Kelvin)      7.54747     7.54741     7.54727
 Rotational constants (GHZ):         157.26402   157.26276   157.25969
 Zero-point vibrational energy     119692.2 (Joules/Mol)
                                   28.60711 (Kcal/Mol)
 Vibrational temperatures:   2032.50  2033.05  2033.13  2358.42  2358.76
          (Kelvin)           4386.20  4529.62  4529.76  4529.83

 Zero-point correction=                           0.045588 (Hartree/Particle)
 Thermal correction to Energy=                    0.048448
 Thermal correction to Enthalpy=                  0.049392
 Thermal correction to Gibbs Free Energy=         0.025919
 Sum of electronic and zero-point Energies=            -40.256005
 Sum of electronic and thermal Energies=               -40.253146
 Sum of electronic and thermal Enthalpies=             -40.252202
 Sum of electronic and thermal Free Energies=          -40.275675

                     E (Thermal)             CV                S
                      KCal/Mol        Cal/Mol-Kelvin    Cal/Mol-Kelvin
 Total                   30.401              6.357             49.402
 Electronic               0.000              0.000              0.000
 Translational            0.889              2.981             34.261
 Rotational               0.889              2.981             15.077
 Vibrational             28.624              0.396              0.064

 Optimization completed.
    -- Stationary point found.
 Normal termination of Gaussian 09 at Tue Jun 18 14:32:01 2019.
