 Gaussian 16, Revision B.01,
 Gaussian 16:  ES64L-G16RevB.01 20-Dec-2017

 ----------------------------------------------------------------
 #P PBE1PBE/genecp EmpiricalDispersion=GD3 pop=(nbo6read) scf=xqc
 ----------------------------------------------------------------

 --
 Sm
 --
 Symbolic Z-matrix:
 Charge = -2 Multiplicity =11

                         Standard orientation:
 ---------------------------------------------------------------------
 Center     Atomic      Atomic             Coordinates (Angstroms)
 Number     Number       Type             X           Y           Z
 ---------------------------------------------------------------------
      1         62           0       -2.113961   -0.834664   -0.375573
      2          7           0       -3.964443   -2.062352    0.593475
      3          7           0       -3.521282    0.195409   -2.014968
      4          1           0       -2.340281    2.120253   -0.255150
      5          6           0       -0.088912   -2.393819   -0.033571
      6          6           0       -0.184129   -1.630683    1.197509
      7          6           0       -0.289680   -0.165057    1.151592
      8          6           0        0.050938    0.548147   -0.108109
      9          6           0        0.227734   -0.258934   -1.335117
     10          6           0        0.068015   -1.710335   -1.299933
     11         14           0       -4.855907   -3.378513   -0.039717
     12          6           0       -4.549034   -1.060764    1.337640
     13         14           0       -4.239066   -0.547167   -3.379384
     14          6           0       -4.124986    1.174949   -1.261650
     15         26           0       -4.791535    0.983807    0.764246
     16          6           0       -3.420221    2.056476   -0.361174
     17         62           0        2.041876   -0.974904    0.252466
     18          1           0       -0.145486   -3.478972   -0.004230
     19          1           0       -0.431742   -2.144330    2.123436
     20          1           0       -0.183010    0.370176    2.092559
     21          1           0        0.203193    0.235798   -2.302219
     22          1           0        0.263676   -2.284073   -2.202221
     23          6           0       -3.827322   -0.151359    2.199289
     24          6           0       -5.919659   -0.611104    1.362260
     25          6           0       -5.525594    1.466561   -1.079904
     26          1           0       -2.757091   -0.195263    2.385979
     27          6           0       -4.739566    0.780970    2.781910
     28          1           0       -4.480886    1.574362    3.473539
     29          6           0       -6.042040    0.489775    2.270174
     30          1           0       -6.956029    1.025440    2.502291
     31          1           0       -6.718827   -1.034233    0.763353
     32          6           0       -4.356416    2.911053    0.294480
     33          1           0       -4.104422    3.686544    1.008156
     34          6           0       -5.663857    2.553440   -0.157235
     35          1           0       -6.597794    3.002429    0.162466
     36          1           0       -6.336281    0.927560   -1.557713
     37          7           0        3.477213   -0.405654    2.096053
     38          7           0        3.853862   -1.914653   -1.013701
     39         14           0        4.170499   -1.465512    3.245540
     40          6           0        4.110242    0.718324    1.613358
     41         14           0        4.661610   -3.397684   -0.744200
     42          6           0        4.476513   -0.775581   -1.476084
     43         26           0        4.781649    1.036711   -0.388330
     44          6           0        5.518954    1.012362    1.514800
     45          6           0        3.434825    1.821043    0.971673
     46          6           0        5.860945   -0.382413   -1.386099
     47          6           0        3.789281    0.351593   -2.064270
     48          1           0        6.313565    0.349227    1.838523
     49          6           0        5.689277    2.296431    0.901769
     50          1           0        6.636691    2.787047    0.707138
     51          6           0        4.393958    2.792099    0.557934
     52          1           0        4.158224    3.725066    0.059363
     53          1           0        2.359911    1.933159    0.867422
     54          1           0        6.642402   -0.974797   -0.922939
     55          6           0        6.023941    0.913879   -1.973915
     56          1           0        6.956581    1.461054   -2.057996
     57          6           0        4.734262    1.373238   -2.385731
     58          1           0        4.502182    2.331538   -2.836010
     59          1           0        2.720024    0.387201   -2.252580
     60          6           0        0.158150    1.987132   -0.141805
     61          6           0       -0.172645    2.793927    0.981865
     62          6           0        0.629392    2.684799   -1.287761
     63          6           0       -0.019242    4.173375    0.961824
     64          1           0       -0.574084    2.319936    1.872625
     65          6           0        0.777776    4.062535   -1.295271
     66          1           0        0.917010    2.120496   -2.169420
     67          6           0        0.461386    4.835564   -0.171262
     68          1           0       -0.283245    4.744198    1.851507
     69          1           0        1.157119    4.544739   -2.195720
     70          1           0        0.582737    5.915899   -0.181042
     71          1           0        5.978892   -3.324452    0.020846
     72          1           0        3.737759   -4.280798    0.070486
     73          1           0        5.013991   -4.181261   -2.006314
     74          1           0        3.331214   -2.726793    3.274108
     75          1           0        5.606780   -1.906669    2.979065
     76          1           0        4.214243   -0.933968    4.675445
     77          1           0       -3.419744   -1.776746   -3.714111
     78          1           0       -5.681538   -1.014907   -3.215185
     79          1           0       -4.273451    0.315256   -4.637204
     80          1           0       -6.114559   -3.029699   -0.828038
     81          1           0       -3.955015   -4.142012   -0.988008
     82          1           0       -5.347511   -4.379438    1.004102
 ---------------------------------------------------------------------

 SCF Done:  E(UPBE1PBE) =  -4180.96997198     A.U. after   33 cycles
 SCF Done:  E(UPBE1PBE) =  -4180.97443701     a.u. after   21 cycles

 The electronic state is 11-A.
 Alpha  occ. eigenvalues --  -66.06066 -66.05990 -66.05962 -66.05887 -14.14876
 Alpha  occ. eigenvalues --  -14.14863 -14.14728 -14.14699 -12.83202 -12.82646
 Alpha  occ. eigenvalues --  -10.08766 -10.08726 -10.08555 -10.08444 -10.05907
 Alpha  occ. eigenvalues --  -10.05811 -10.05734 -10.05686 -10.05685 -10.05582
 Alpha  occ. eigenvalues --  -10.05548 -10.05307 -10.05273 -10.05239 -10.05093
 Alpha  occ. eigenvalues --  -10.04794 -10.04711 -10.04607 -10.04604 -10.04532
 Alpha  occ. eigenvalues --  -10.04476 -10.04378 -10.04087 -10.04003 -10.03967
 Alpha  occ. eigenvalues --  -10.03895 -10.03703 -10.03165 -10.02891 -10.02558
 Alpha  occ. eigenvalues --  -10.02238 -10.02037  -9.21691  -9.21525  -9.21265
 Alpha  occ. eigenvalues --   -9.20988  -9.20966  -9.20290  -5.14167  -5.14098
 Alpha  occ. eigenvalues --   -5.14065  -5.13990  -4.76671  -4.76202  -4.76103
 Alpha  occ. eigenvalues --   -4.75740  -4.75055  -4.74572  -4.74485  -4.74017
 Alpha  occ. eigenvalues --   -4.73242  -4.72752  -3.47554  -3.47507  -3.47484
 Alpha  occ. eigenvalues --   -3.47451  -3.47451  -3.47437  -3.47405  -3.47382
 Alpha  occ. eigenvalues --   -3.47376  -3.47351  -3.47330  -3.47273  -3.40047
 Alpha  occ. eigenvalues --   -3.39951  -2.04797  -2.04699  -2.00473  -2.00375
 Alpha  occ. eigenvalues --   -2.00096  -2.00006  -1.51632  -1.51247  -0.76510
 Alpha  occ. eigenvalues --   -0.74778  -0.73868  -0.73507  -0.73469  -0.71643
 Alpha  occ. eigenvalues --   -0.71083  -0.70713  -0.70368  -0.70193  -0.69082
 Alpha  occ. eigenvalues --   -0.66175  -0.65141  -0.64690  -0.64637  -0.61399
 Alpha  occ. eigenvalues --   -0.59007  -0.58128  -0.54872  -0.54780  -0.54698
 Alpha  occ. eigenvalues --   -0.54528  -0.54413  -0.53561  -0.51484  -0.51426
 Alpha  occ. eigenvalues --   -0.51221  -0.51100  -0.45032  -0.44353  -0.40298
 Alpha  occ. eigenvalues --   -0.39605  -0.39391  -0.39301  -0.38611  -0.38514
 Alpha  occ. eigenvalues --   -0.37596  -0.37552  -0.36714  -0.36660  -0.36623
 Alpha  occ. eigenvalues --   -0.36560  -0.35516  -0.35446  -0.35196  -0.31486
 Alpha  occ. eigenvalues --   -0.30620  -0.30534  -0.30310  -0.30092  -0.29993
 Alpha  occ. eigenvalues --   -0.27821  -0.26096  -0.25475  -0.25337  -0.25032
 Alpha  occ. eigenvalues --   -0.24543  -0.23865  -0.23564  -0.23448  -0.23412
 Alpha  occ. eigenvalues --   -0.23347  -0.23234  -0.23185  -0.23114  -0.22794
 Alpha  occ. eigenvalues --   -0.22423  -0.22224  -0.22165  -0.21918  -0.21790
 Alpha  occ. eigenvalues --   -0.21023  -0.20878  -0.20453  -0.20375  -0.20272
 Alpha  occ. eigenvalues --   -0.20185  -0.18964  -0.18392  -0.18070  -0.17853
 Alpha  occ. eigenvalues --   -0.17446  -0.16467  -0.16397  -0.16314  -0.16309
 Alpha  occ. eigenvalues --   -0.15894  -0.15798  -0.15791  -0.15463  -0.13715
 Alpha  occ. eigenvalues --   -0.12829  -0.12714  -0.12617  -0.12357  -0.11672
 Alpha  occ. eigenvalues --   -0.09840  -0.09397  -0.09282  -0.09106  -0.08602
 Alpha  occ. eigenvalues --   -0.08205  -0.07979  -0.07784  -0.07673  -0.07338
 Alpha  occ. eigenvalues --   -0.07253  -0.06999  -0.06673  -0.06387  -0.06319
 Alpha  occ. eigenvalues --   -0.06028  -0.05579  -0.05436  -0.05250  -0.04875
 Alpha  occ. eigenvalues --   -0.04772  -0.04374  -0.03896  -0.03512  -0.03335
 Alpha  occ. eigenvalues --   -0.02098  -0.02027  -0.01916  -0.01763   0.00631
 Alpha  occ. eigenvalues --    0.00740   0.05271   0.05321
 Alpha virt. eigenvalues --    0.12980   0.13020   0.13871   0.14807   0.18440
 Alpha virt. eigenvalues --    0.18874   0.19111   0.19266   0.19484   0.19755
 Alpha virt. eigenvalues --    0.19777   0.19871   0.20174   0.20241   0.20333

  Beta  occ. eigenvalues --  -66.06066 -66.05990 -66.05963 -66.05887 -14.14921
  Beta  occ. eigenvalues --  -14.14899 -14.14770 -14.14742 -12.60747 -12.60162
  Beta  occ. eigenvalues --  -10.08764 -10.08730 -10.08559 -10.08441 -10.05909
  Beta  occ. eigenvalues --  -10.05813 -10.05713 -10.05687 -10.05683 -10.05582
  Beta  occ. eigenvalues --  -10.05548 -10.05307 -10.05229 -10.05197 -10.05092
  Beta  occ. eigenvalues --  -10.04796 -10.04710 -10.04619 -10.04602 -10.04535
  Beta  occ. eigenvalues --  -10.04496 -10.04485 -10.04088 -10.04084 -10.04049
  Beta  occ. eigenvalues --  -10.03898 -10.03835 -10.03259 -10.03054 -10.02744
  Beta  occ. eigenvalues --  -10.02475 -10.02259  -8.98500  -8.98322  -8.98268
  Beta  occ. eigenvalues --   -8.97432  -8.96978  -8.96260  -5.14167  -5.14098
  Beta  occ. eigenvalues --   -5.14066  -5.13989  -4.51252  -4.50753  -4.50280
  Beta  occ. eigenvalues --   -4.49759  -4.48700  -4.47792  -4.47762  -4.47503
  Beta  occ. eigenvalues --   -4.46120  -4.45471  -3.47554  -3.47507  -3.47485
  Beta  occ. eigenvalues --   -3.47452  -3.47451  -3.47437  -3.47405  -3.47382
  Beta  occ. eigenvalues --   -3.47377  -3.47353  -3.47330  -3.47272  -3.40048
  Beta  occ. eigenvalues --   -3.39969  -2.04799  -2.04718  -2.00478  -2.00398
  Beta  occ. eigenvalues --   -2.00092  -2.00021  -1.42075  -1.41646  -0.74640
  Beta  occ. eigenvalues --   -0.74375  -0.73011  -0.72920  -0.72718  -0.69221
  Beta  occ. eigenvalues --   -0.67818  -0.67090  -0.66934  -0.66212  -0.64860
  Beta  occ. eigenvalues --   -0.64112  -0.62685  -0.62324  -0.61847  -0.60051
  Beta  occ. eigenvalues --   -0.58202  -0.56551  -0.54860  -0.54718  -0.54487
  Beta  occ. eigenvalues --   -0.54386  -0.54332  -0.53348  -0.51450  -0.51379
  Beta  occ. eigenvalues --   -0.51167  -0.51050  -0.45312  -0.44527  -0.40708
  Beta  occ. eigenvalues --   -0.39788  -0.39371  -0.39282  -0.38598  -0.38504
  Beta  occ. eigenvalues --   -0.37604  -0.37560  -0.36718  -0.36658  -0.36620
  Beta  occ. eigenvalues --   -0.36561  -0.35520  -0.35447  -0.35198  -0.31496
  Beta  occ. eigenvalues --   -0.30624  -0.30534  -0.30521  -0.30090  -0.29990
  Beta  occ. eigenvalues --   -0.27910  -0.26255  -0.25454  -0.25291  -0.25064
  Beta  occ. eigenvalues --   -0.24570  -0.23905  -0.23571  -0.23463  -0.23431
  Beta  occ. eigenvalues --   -0.23416  -0.23237  -0.23219  -0.23117  -0.22790
  Beta  occ. eigenvalues --   -0.22426  -0.22245  -0.22162  -0.22035  -0.21776
  Beta  occ. eigenvalues --   -0.21043  -0.20868  -0.20438  -0.20365  -0.20277
  Beta  occ. eigenvalues --   -0.20191  -0.19197  -0.18446  -0.18143  -0.17823
  Beta  occ. eigenvalues --   -0.17499  -0.16533  -0.16402  -0.16324  -0.16311
  Beta  occ. eigenvalues --   -0.16127  -0.15805  -0.15798  -0.15578  -0.13835
  Beta  occ. eigenvalues --   -0.12932  -0.12764  -0.12587  -0.12331  -0.11782
  Beta  occ. eigenvalues --   -0.10339  -0.09274  -0.09183  -0.08304  -0.08068
  Beta  occ. eigenvalues --   -0.07825  -0.07445  -0.07255  -0.06803  -0.06290
  Beta  occ. eigenvalues --   -0.05548  -0.05437  -0.05186  -0.03516  -0.03419
  Beta  occ. eigenvalues --   -0.02202  -0.02169  -0.02099  -0.02036   0.00597
  Beta  occ. eigenvalues --    0.00657   0.05965   0.06011
  Beta virt. eigenvalues --    0.12981   0.13017   0.18415   0.18677   0.18857
  Beta virt. eigenvalues --    0.19344   0.19578   0.19676   0.19755   0.19853
  Beta virt. eigenvalues --    0.20148   0.20271   0.20340   0.20950   0.21366

 Mulliken charges and spin densities:
               1          2
     1  Sm   0.729288   5.445948
     2  N   -0.739672  -0.016871
     3  N   -0.740742  -0.015486
     4  H    0.232668  -0.000232
     5  C   -0.256043  -0.062153
     6  C   -0.276217  -0.126566
     7  C   -0.310099  -0.151691
     8  C   -0.092014  -0.086739
     9  C   -0.318123  -0.163576
    10  C   -0.261852  -0.112656
    11  Si   0.457012  -0.000677
    12  C    0.294301   0.000425
    13  Si   0.461055  -0.001255
    14  C    0.301802  -0.002828
    15  Fe  -0.402086  -0.001289
    16  C   -0.200868  -0.000277
    17  Sm   0.741913   5.416604
    18  H    0.159048   0.005914
    19  H    0.160575   0.008322
    20  H    0.159526   0.007963
    21  H    0.163442   0.008583
    22  H    0.161754   0.007983
    23  C   -0.197419  -0.003872
    24  C   -0.209433  -0.000307
    25  C   -0.208678   0.001625
    26  H    0.203120  -0.001411
    27  C   -0.175618   0.001561
    28  H    0.153842  -0.000065
    29  C   -0.155271  -0.001461
    30  H    0.145366  -0.000161
    31  H    0.163267   0.000021
    32  C   -0.167524  -0.000211
    33  H    0.157072   0.000036
    34  C   -0.152617  -0.000796
    35  H    0.144012  -0.000045
    36  H    0.162178  -0.000069
    37  N   -0.742727  -0.015090
    38  N   -0.743020  -0.011604
    39  Si   0.461029  -0.000304
    40  C    0.297375   0.001405
    41  Si   0.461355  -0.000985
    42  C    0.295652  -0.002181
    43  Fe  -0.402687  -0.002806
    44  C   -0.208592  -0.001725
    45  C   -0.194937  -0.002265
    46  C   -0.209210   0.001162
    47  C   -0.191159  -0.001179
    48  H    0.162221   0.000104
    49  C   -0.154218  -0.000222
    50  H    0.143699  -0.000171
    51  C   -0.165821   0.000701
    52  H    0.165457   0.000012
    53  H    0.225648   0.000082
    54  H    0.162811  -0.000068
    55  C   -0.155305  -0.000704
    56  H    0.145496  -0.000173
    57  C   -0.173490  -0.000318
    58  H    0.157282   0.000019
    59  H    0.195880  -0.002869
    60  C    0.058481   0.020825
    61  C   -0.224941  -0.062290
    62  C   -0.187242  -0.060042
    63  C   -0.160275   0.034145
    64  H    0.162604   0.003186
    65  C   -0.173168   0.032149
    66  H    0.151369   0.003297
    67  C   -0.194767  -0.085569
    68  H    0.124541  -0.001285
    69  H    0.124777  -0.001178
    70  H    0.112682   0.004812
    71  H   -0.142040  -0.000249
    72  H   -0.120534   0.000104
    73  H   -0.142455  -0.000015
    74  H   -0.119807  -0.000075
    75  H   -0.143776  -0.000147
    76  H   -0.141486  -0.000086
    77  H   -0.119401  -0.000138
    78  H   -0.141678  -0.000416
    79  H   -0.139612  -0.001018
    80  H   -0.140781  -0.000144
    81  H   -0.120106  -0.000206
    82  H   -0.142093  -0.000773
 Sum of Mulliken charges =  -2.00000  10.00000

 Dipole moment (field-independent basis, Debye):
    X=              0.0892    Y=              3.8673    Z=              0.4633  Tot=              3.8960
 Quadrupole moment (field-independent basis, Debye-Ang):
   XX=           -545.0271   YY=           -419.8750   ZZ=           -411.5271
   XY=              1.6876   XZ=            -16.2510   YZ=              2.4900

 Summary of Natural Population Analysis:

                                     Natural Population
             Natural    ---------------------------------------------
  Atom No    Charge        Core      Valence    Rydberg      Total
 --------------------------------------------------------------------
   Sm  1    3.41723     26.99767     0.55769    0.02742    27.58277
    N  2   -0.59941      0.99999     3.09272    0.00670     4.09941
    N  3   -0.60104      0.99999     3.09451    0.00655     4.10104
    H  4    0.13890      0.00000     0.36009    0.00101     0.36110
    C  5   -0.28086      0.99998     2.26742    0.01346     3.28086
    C  6   -0.31907      0.99998     2.30521    0.01388     3.31907
    C  7   -0.34528      0.99998     2.33288    0.01242     3.34528
    C  8   -0.18435      0.99998     2.17368    0.01069     3.18435
    C  9   -0.34538      0.99998     2.33247    0.01293     3.34538
    C 10   -0.30541      0.99998     2.29188    0.01356     3.30541
   Si 11    0.53763      4.99996     1.43811    0.02429     6.46237
    C 12    0.06975      0.99998     1.91551    0.01476     2.93025
   Si 13    0.53781      4.99996     1.43794    0.02429     6.46219
    C 14    0.07074      0.99998     1.91442    0.01486     2.92926
   Fe 15    0.15915      8.99979     3.80264    0.03841    12.84085
    C 16   -0.16917      0.99998     2.15893    0.01026     3.16917
   Sm 17    3.42008     26.99767     0.55469    0.02756    27.57992
    H 18    0.13803      0.00000     0.36165    0.00033     0.36197
    H 19    0.13959      0.00000     0.36003    0.00038     0.36041
    H 20    0.13662      0.00000     0.36284    0.00054     0.36338
    H 21    0.13789      0.00000     0.36160    0.00052     0.36211
    H 22    0.13979      0.00000     0.35981    0.00040     0.36021
    C 23   -0.17641      0.99998     2.16658    0.00984     3.17641
    C 24   -0.17336      0.99998     2.16426    0.00912     3.17336
    C 25   -0.17198      0.99998     2.16285    0.00915     3.17198
    H 26    0.13637      0.00000     0.36287    0.00076     0.36363
    C 27   -0.15878      0.99998     2.14850    0.01030     3.15878
    H 28    0.12518      0.00000     0.37423    0.00058     0.37482
    C 29   -0.16010      0.99998     2.14985    0.01026     3.16010
    H 30    0.12207      0.00000     0.37728    0.00065     0.37793
    H 31    0.12806      0.00000     0.37144    0.00050     0.37194
    C 32   -0.15526      0.99998     2.14485    0.01043     3.15526
    H 33    0.12643      0.00000     0.37293    0.00063     0.37357
    C 34   -0.15980      0.99998     2.14958    0.01023     3.15980
    H 35    0.12173      0.00000     0.37763    0.00064     0.37827
    H 36    0.12774      0.00000     0.37176    0.00050     0.37226
    N 37   -0.60284      0.99999     3.09634    0.00651     4.10284
    N 38   -0.60217      0.99999     3.09571    0.00647     4.10217
   Si 39    0.53906      4.99996     1.43676    0.02422     6.46094
    C 40    0.07061      0.99998     1.91464    0.01476     2.92939
   Si 41    0.53909      4.99996     1.43672    0.02423     6.46091
    C 42    0.06931      0.99998     1.91591    0.01479     2.93069
   Fe 43    0.15651      8.99979     3.80456    0.03913    12.84349
    C 44   -0.17328      0.99998     2.16416    0.00913     3.17328
    C 45   -0.16881      0.99998     2.15867    0.01016     3.16881
    C 46   -0.17227      0.99998     2.16317    0.00912     3.17227
    C 47   -0.17494      0.99998     2.16516    0.00980     3.17494
    H 48    0.12773      0.00000     0.37178    0.00049     0.37227
    C 49   -0.15970      0.99998     2.14955    0.01016     3.15970
    H 50    0.12159      0.00000     0.37778    0.00064     0.37841
    C 51   -0.15368      0.99998     2.14326    0.01044     3.15368
    H 52    0.12888      0.00000     0.37048    0.00064     0.37112
    H 53    0.13774      0.00000     0.36110    0.00116     0.36226
    H 54    0.12799      0.00000     0.37151    0.00050     0.37201
    C 55   -0.15978      0.99998     2.14958    0.01022     3.15978
    H 56    0.12203      0.00000     0.37732    0.00065     0.37797
    C 57   -0.15847      0.99998     2.14820    0.01029     3.15847
    H 58    0.12611      0.00000     0.37328    0.00061     0.37389
    H 59    0.13452      0.00000     0.36472    0.00076     0.36548
    C 60   -0.02435      0.99999     2.01568    0.00869     3.02435
    C 61   -0.16683      0.99999     2.15947    0.00737     3.16683
    C 62   -0.15367      0.99999     2.14643    0.00726     3.15367
    C 63   -0.11043      0.99999     2.10301    0.00743     3.11043
    H 64    0.12189      0.00000     0.37753    0.00058     0.37811
    C 65   -0.11340      0.99999     2.10598    0.00743     3.11340
    H 66    0.11875      0.00000     0.38070    0.00055     0.38125
    C 67   -0.19417      0.99999     2.18644    0.00774     3.19417
    H 68    0.11269      0.00000     0.38673    0.00058     0.38731
    H 69    0.11268      0.00000     0.38674    0.00058     0.38732
    H 70    0.11194      0.00000     0.38755    0.00051     0.38806
    H 71   -0.11315      0.00000     0.61267    0.00048     0.61315
    H 72   -0.10170      0.00000     0.60153    0.00017     0.60170
    H 73   -0.11425      0.00000     0.61376    0.00049     0.61425
    H 74   -0.10155      0.00000     0.60138    0.00017     0.60155
    H 75   -0.11393      0.00000     0.61345    0.00048     0.61393
    H 76   -0.11389      0.00000     0.61340    0.00049     0.61389
    H 77   -0.10129      0.00000     0.60112    0.00017     0.60129
    H 78   -0.11311      0.00000     0.61263    0.00048     0.61311
    H 79   -0.11336      0.00000     0.61287    0.00048     0.61336
    H 80   -0.11339      0.00000     0.61289    0.00050     0.61339
    H 81   -0.10143      0.00000     0.60127    0.00016     0.60143
    H 82   -0.11441      0.00000     0.61392    0.00049     0.61441
 ====================================================================
 * Total *  4.00000    127.99421   112.38885    0.61695   241.00000

 Normal termination of Gaussian 16 at Tue Jun 25 22:29:17 2019.
