 Gaussian 09, Revision D.01,
 Gaussian 09:  ES64L-G09RevD.01 24-Apr-2013

 -----------------------
 #p force b3lyp 6-31g(d)
 -----------------------

 ----------
 [No Title]
 ----------
 Symbolic Z-matrix:
 Charge =  0 Multiplicity = 1

                         Standard orientation:
 ---------------------------------------------------------------------
 Center     Atomic      Atomic             Coordinates (Angstroms)
 Number     Number       Type             X           Y           Z
 ---------------------------------------------------------------------
      1          8           0       -2.078990   -0.358835   -2.384490
      2          8           0        2.628688   -0.373441   -1.049679
      3          8           0       -0.032788    0.669406    2.602112
      4          8           0        3.582559    0.734003   -1.745066
      5          8           0        4.296425    2.213094    0.637947
      6          7           0       -0.663396   -2.151821   -0.401858
      7          7           0       -1.663354    1.169117    0.615148
      8          6           0       -1.952472    0.375473   -1.483042
      9          6           0       -0.498768   -0.929489    0.054041
     10          6           0        0.782018   -0.702921    0.404794
     11          6           0        1.514607   -1.862821    0.191687
     12          6           0        2.971191    0.407141   -0.879852
     13          6           0        0.601690   -2.760891   -0.309690
     14          6           0        2.525516    0.865321    0.395356
     15          6           0        1.430428    0.448988    0.935758
     16          6           0       -2.931866   -0.821885    0.374106
     17          6           0       -1.756757   -0.086448   -0.069672
     18          6           0       -1.714624    2.218134   -0.207060
     19          6           0       -1.943498    1.811298   -1.453158
     20          6           0       -3.471169   -1.780783   -0.391514
     21          6           0        1.051484    1.046398    2.098177
     22          6           0       -3.461000   -0.564136    1.571165
     23          6           0        3.230309    1.809202    1.062171
     24          6           0        2.851807   -2.226500    0.384193
     25          6           0       -4.508983   -2.466877    0.038825
     26          6           0        0.981975   -4.000150   -0.617125
     27          6           0        3.236219   -3.453560    0.075687
     28          6           0       -2.074237    2.717628   -2.434423
     29          6           0        2.310216   -4.332537   -0.419434
     30          6           0        2.811539    2.377460    2.224883
     31          6           0       -4.497780   -1.250373    1.998029
     32          6           0       -5.024996   -2.207225    1.235246
     33          6           0       -1.588740    3.558320    0.070638
     34          6           0        1.726116    2.009725    2.727128
     35          6           0        3.017929   -0.828369   -2.284105
     36          6           0       -1.714644    4.450402   -0.915306
     37          6           0       -1.963403    4.047811   -2.160418
     38          1           0       -0.104145    1.033952    3.460420
     39          1           0        4.492996    1.685230   -0.154872
     40          1           0       -1.528756   -2.556225   -0.681926
     41          1           0       -1.058843    1.179754    1.361181
     42          1           0       -3.094813   -1.962761   -1.335087
     43          1           0       -3.066234    0.188494    2.163698
     44          1           0        3.571395   -1.557069    0.767824
     45          1           0       -4.918598   -3.199007   -0.571111
     46          1           0        0.266828   -4.676223   -0.997285
     47          1           0        4.267297   -3.745262    0.218474
     48          1           0       -2.250875    2.368714   -3.385636
     49          1           0        2.641092   -5.286342   -0.650304
     50          1           0        3.358174    3.104763    2.710016
     51          1           0       -4.895032   -1.033427    2.929683
     52          1           0       -5.833610   -2.740158    1.567809
     53          1           0       -1.402584    3.890322    1.025075
     54          1           0        1.403961    2.457480    3.629232
     55          1           0        2.577091   -1.396772   -2.245372
     56          1           0        3.791307   -1.024573   -2.490485
     57          1           0        2.943661   -0.406916   -2.988851
     58          1           0       -1.619982    5.492931   -0.715200
     59          1           0       -2.060866    4.778177   -2.899419
 ---------------------------------------------------------------------

 SCF Done:  E(RB3LYP) =  -1640.64683814     A.U. after   16 cycles

 The electronic state is 1-A.
 Alpha  occ. eigenvalues --  -19.18839 -19.18639 -19.16503 -19.13250 -19.06313
 Alpha  occ. eigenvalues --  -14.36454 -14.32512 -10.28433 -10.25946 -10.22860
 Alpha  occ. eigenvalues --  -10.22268 -10.22145 -10.21977 -10.21356 -10.20015
 Alpha  occ. eigenvalues --  -10.18090 -10.17903 -10.17664 -10.17591 -10.17295
 Alpha  occ. eigenvalues --  -10.16944 -10.16933 -10.16906 -10.16827 -10.16735
 Alpha  occ. eigenvalues --  -10.16697 -10.16691 -10.16625 -10.16574 -10.16479
 Alpha  occ. eigenvalues --  -10.16464 -10.16387 -10.16381 -10.16270 -10.16072
 Alpha  occ. eigenvalues --  -10.15446 -10.15269  -1.39896  -1.13208  -1.11782
 Alpha  occ. eigenvalues --   -1.06739  -1.06039  -1.00046  -0.98069  -0.90242
 Alpha  occ. eigenvalues --   -0.89606  -0.87273  -0.86890  -0.85859  -0.82377
 Alpha  occ. eigenvalues --   -0.80240  -0.78168  -0.78057  -0.77116  -0.75479
 Alpha  occ. eigenvalues --   -0.74747  -0.74221  -0.72771  -0.70783  -0.70089
 Alpha  occ. eigenvalues --   -0.67201  -0.66898  -0.65675  -0.65182  -0.63691
 Alpha  occ. eigenvalues --   -0.63091  -0.62125  -0.61184  -0.60095  -0.58935
 Alpha  occ. eigenvalues --   -0.58879  -0.57210  -0.56417  -0.55097  -0.54196
 Alpha  occ. eigenvalues --   -0.53704  -0.53262  -0.51210  -0.50091  -0.49609
 Alpha  occ. eigenvalues --   -0.49232  -0.48394  -0.47704  -0.47075  -0.46035
 Alpha  occ. eigenvalues --   -0.45861  -0.45614  -0.44749  -0.44544  -0.44230
 Alpha  occ. eigenvalues --   -0.44176  -0.43837  -0.43649  -0.43444  -0.43015
 Alpha  occ. eigenvalues --   -0.42325  -0.42142  -0.41793  -0.41406  -0.40869
 Alpha  occ. eigenvalues --   -0.40450  -0.39531  -0.38140  -0.37982  -0.37066
 Alpha  occ. eigenvalues --   -0.36892  -0.36195  -0.35945  -0.35545  -0.34974
 Alpha  occ. eigenvalues --   -0.34629  -0.34265  -0.33878  -0.32374  -0.31687
 Alpha  occ. eigenvalues --   -0.31030  -0.29975  -0.28696  -0.26845  -0.26464
 Alpha  occ. eigenvalues --   -0.26126  -0.25936  -0.24096  -0.23525  -0.21324
 Alpha  occ. eigenvalues --   -0.20338  -0.19627  -0.17496
 Alpha virt. eigenvalues --   -0.04400  -0.01105   0.00288   0.00889   0.01142
 Alpha virt. eigenvalues --    0.02506   0.03756   0.04364   0.06178   0.07032
 Alpha virt. eigenvalues --    0.09235   0.10249   0.10587   0.11171   0.11507

 Mulliken charges:
               1
     1  O   -0.465795
     2  O    0.075409
     3  O   -0.627411
     4  O   -0.568508
     5  O   -0.574945
     6  N   -0.747850
     7  N   -0.758096
     8  C    0.385344
     9  C    0.366776
    10  C   -0.095916
    11  C    0.141424
    12  C    0.220217
    13  C    0.316341
    14  C   -0.050997
    15  C    0.013297
    16  C    0.188717
    17  C   -0.099043
    18  C    0.324138
    19  C    0.122895
    20  C   -0.232520
    21  C    0.261621
    22  C   -0.133070
    23  C    0.262548
    24  C   -0.210192
    25  C   -0.123152
    26  C   -0.179663
    27  C   -0.117910
    28  C   -0.197762
    29  C   -0.161057
    30  C   -0.176135
    31  C   -0.115698
    32  C   -0.110781
    33  C   -0.167013
    34  C   -0.195646
    35  C   -0.084540
    36  C   -0.112567
    37  C   -0.134981
    38  H    0.413157
    39  H    0.405190
    40  H    0.336351
    41  H    0.383740
    42  H    0.176059
    43  H    0.118100
    44  H    0.114018
    45  H    0.122365
    46  H    0.116990
    47  H    0.119634
    48  H    0.130932
    49  H    0.110453
    50  H    0.118991
    51  H    0.117515
    52  H    0.115818
    53  H    0.108521
    54  H    0.116015
    55  H    0.108899
    56  H    0.132741
    57  H    0.149960
    58  H    0.128043
    59  H    0.119025
 Sum of Mulliken charges =   0.00000

 Dipole moment (field-independent basis, Debye):
    X=             -1.4937    Y=             -0.3341    Z=              3.3601  Tot=              3.6923
 Quadrupole moment (field-independent basis, Debye-Ang):
   XX=           -206.3469   YY=           -195.0984   ZZ=           -193.9158
   XY=             -3.9265   XZ=             -4.5551   YZ=             10.2133

 Normal termination of Gaussian 09 at Thu Oct  3 23:45:45 2019.
