 Gaussian 09, Revision D.01,
 Gaussian 09:  ES64L-G09RevD.01 24-Apr-2013

 ----------------------------------------
 # opt freq b3lyp/3-21g geom=connectivity
 ----------------------------------------

 -------------------
 Title Card Required
 -------------------
 Symbolic Z-matrix:
 Charge =  0 Multiplicity = 1

 SCF Done:  E(RB3LYP) =  -40.3001692339     A.U. after   10 cycles
 SCF Done:  E(RB3LYP) =  -40.3016014128     A.U. after    9 cycles
 Optimization completed.
    -- Stationary point found.
 Normal termination of Gaussian 09 at Sat Jun  8 21:09:10 2019.

 -----------------------------------------------------------------
 #N Geom=AllCheck Guess=TCheck SCRF=Check GenChk RB3LYP/3-21G Freq
 -----------------------------------------------------------------

 Structure from the checkpoint file:  "freq.chk"
 -------------------
 Title Card Required
 -------------------
 Charge =  0 Multiplicity = 1

                         Standard orientation:
 ---------------------------------------------------------------------
 Center     Atomic      Atomic             Coordinates (Angstroms)
 Number     Number       Type             X           Y           Z
 ---------------------------------------------------------------------
      1          6           0        0.000000    0.000000    0.000000
      2          1           0        0.631331    0.631331    0.631331
      3          1           0       -0.631331   -0.631331    0.631331
      4          1           0       -0.631331    0.631331   -0.631331
      5          1           0        0.631331   -0.631331   -0.631331
 ---------------------------------------------------------------------

 SCF Done:  E(RB3LYP) =  -40.3016014128     A.U. after    1 cycles

 The electronic state is 1-A1.
 Alpha  occ. eigenvalues --  -10.09993  -0.68985  -0.38882  -0.38882  -0.38882
 Alpha virt. eigenvalues --    0.14583   0.19391   0.19391   0.19391   0.70792
 Alpha virt. eigenvalues --    0.70792   0.70792   1.02427   1.05544   1.05544
 Alpha virt. eigenvalues --    1.05544   1.69676

 Mulliken charges:
               1
     1  C   -0.764386
     2  H    0.191097
     3  H    0.191097
     4  H    0.191097
     5  H    0.191097
 Sum of Mulliken charges =   0.00000

 Dipole moment (field-independent basis, Debye):
    X=              0.0000    Y=              0.0000    Z=              0.0000  Tot=              0.0000
 Quadrupole moment (field-independent basis, Debye-Ang):
   XX=             -8.2530   YY=             -8.2530   ZZ=             -8.2530
   XY=              0.0000   XZ=              0.0000   YZ=              0.0000

  Exact polarizability:  11.526   0.000  11.526   0.000   0.000  11.526
 Approx polarizability:  13.481   0.000  13.481   0.000   0.000  13.481

                      1                      2                      3
                     T2                     T2                     T2
 Frequencies --   1414.1605              1414.1605              1414.1605
 Red. masses --      1.1829                 1.1829                 1.1829
 Frc consts  --      1.3938                 1.3938                 1.3938
 IR Inten    --     24.6370                24.6370                24.6370

                      4                      5                      6
                      E                      E                     A1
 Frequencies --   1640.6588              1640.6588              3048.5146
 Red. masses --      1.0078                 1.0078                 1.0078
 Frc consts  --      1.5983                 1.5983                 5.5184
 IR Inten    --      0.0000                 0.0000                 0.0000

                      7                      8                      9
                     T2                     T2                     T2
 Frequencies --   3148.7407              3148.7407              3148.7407
 Red. masses --      1.0982                 1.0982                 1.0982
 Frc consts  --      6.4154                 6.4154                 6.4154
 IR Inten    --     24.5866                24.5866                24.5866

 - Thermochemistry -
 -------------------
 Temperature   298.150 Kelvin.  Pressure   1.00000 Atm.
 Atom     1 has atomic number  6 and mass  12.00000

 Molecular mass:    16.03130 amu.
 Principal axes and moments of inertia in atomic units:
                           1         2         3
     Eigenvalues --    11.47592  11.47592  11.47592
           X           -0.15719   0.11154   0.98125
           Y            0.80026  -0.56783   0.19274
           Z            0.57868   0.81556   0.00000
 This molecule is a spherical top.
 Rotational symmetry number 12.
 Rotational temperatures (Kelvin)      7.54744     7.54744     7.54744
 Rotational constants (GHZ):         157.26331   157.26331   157.26331
 Zero-point vibrational energy     119737.4 (Joules/Mol)
                                   28.61793 (Kcal/Mol)
 Vibrational temperatures:   2034.66  2034.66  2034.66  2360.54  2360.54
          (Kelvin)           4386.13  4530.33  4530.33  4530.33

 Zero-point correction=                           0.045606 (Hartree/Particle)
 Thermal correction to Energy=                    0.048465
 Thermal correction to Enthalpy=                  0.049409
 Thermal correction to Gibbs Free Energy=         0.028283
 Sum of electronic and zero-point Energies=            -40.255996
 Sum of electronic and thermal Energies=               -40.253137
 Sum of electronic and thermal Enthalpies=             -40.252193
 Sum of electronic and thermal Free Energies=          -40.273319

                     E (Thermal)             CV                S
                      KCal/Mol        Cal/Mol-Kelvin    Cal/Mol-Kelvin
 Total                   30.412              6.355             44.464
 Electronic               0.000              0.000              0.000
 Translational            0.889              2.981             34.261
 Rotational               0.889              2.981             10.139
 Vibrational             28.635              0.394              0.064

 Optimization completed.
    -- Stationary point found.
 Normal termination of Gaussian 09 at Sat Jun  8 21:09:12 2019.
