 Gaussian 09, Revision D.01,
 Gaussian 09:  EM64M-G09RevD.01 24-Apr-2013

 -----------------------------------------------------
 #p opt=calcfc freq b3lyp/6-31g(d,p) geom=connectivity
 -----------------------------------------------------

 -------------------
 Title Card Required
 -------------------
 Symbolic Z-matrix:
 Charge =  0 Multiplicity = 1

 SCF Done:  E(RB3LYP) =  -150.252507770     A.U. after    9 cycles
 SCF Done:  E(RB3LYP) =  -150.257293913     A.U. after    9 cycles
 SCF Done:  E(RB3LYP) =  -150.257426640     A.U. after    6 cycles
 Optimization completed.
    -- Stationary point found.
 Normal termination of Gaussian 09 at Fri Jan 15 19:09:53 2021.

 ----------------------------------------------------------------------
 #P Geom=AllCheck Guess=TCheck SCRF=Check GenChk RB3LYP/6-31G(d,p) Freq
 ----------------------------------------------------------------------

 Structure from the checkpoint file:  "o2.chk"
 -------------------
 Title Card Required
 -------------------
 Charge =  0 Multiplicity = 1

                         Standard orientation:
 ---------------------------------------------------------------------
 Center     Atomic      Atomic             Coordinates (Angstroms)
 Number     Number       Type             X           Y           Z
 ---------------------------------------------------------------------
      1          8           0        0.000000    0.000000    0.607994
      2          8           0        0.000000    0.000000   -0.607994
 ---------------------------------------------------------------------

 SCF Done:  E(RB3LYP) =  -150.257426640     A.U. after    1 cycles

 Unable to determine electronic state:  partially filled degenerate orbitals.
 Alpha  occ. eigenvalues --  -19.30736 -19.30712  -1.27666  -0.79820  -0.53152
 Alpha  occ. eigenvalues --   -0.51527  -0.50755  -0.25017
 Alpha virt. eigenvalues --   -0.17927   0.21204   0.67696   0.71502   0.79234
 Alpha virt. eigenvalues --    0.80968   0.86024   0.91524   0.92699   1.28458
 Alpha virt. eigenvalues --    1.48359   1.51445   1.53778   1.53952   1.92369

 Mulliken charges:
               1
     1  O    0.000000
     2  O    0.000000
 Sum of Mulliken charges =   0.00000

 Dipole moment (field-independent basis, Debye):
    X=              0.0000    Y=              0.0000    Z=              0.0000  Tot=              0.0000
 Quadrupole moment (field-independent basis, Debye-Ang):
   XX=            -10.7090   YY=             -8.9749   ZZ=            -10.2985
   XY=              0.0000   XZ=              0.0000   YZ=              0.0000

  Exact polarizability:   3.765   0.000   4.451   0.000   0.000  11.363
 Approx polarizability:   4.408   0.000   6.353   0.000   0.000  24.736

                      1
                     SGG
 Frequencies --   1643.1462
 Red. masses --     15.9949
 Frc consts  --     25.4439
 IR Inten    --      0.0000

 - Thermochemistry -
 -------------------
 Temperature   298.150 Kelvin.  Pressure   1.00000 Atm.
 Atom     1 has atomic number  8 and mass  15.99491

 Molecular mass:    31.98983 amu.
 Principal axes and moments of inertia in atomic units:
                           1         2         3
     Eigenvalues --     0.00000  42.22873  42.22873
           X            0.00000   1.00000   0.00000
           Y            0.00000   0.00000   1.00000
           Z            1.00000   0.00000   0.00000
 This molecule is a prolate symmetric top.
 Rotational symmetry number  2.
 Rotational temperature (Kelvin)      2.05106
 Rotational constant (GHZ):          42.737285
 Zero-point vibrational energy       9828.2 (Joules/Mol)
                                    2.34900 (Kcal/Mol)
 Vibrational temperatures:   2364.12
          (Kelvin)

 Zero-point correction=                           0.003743 (Hartree/Particle)
 Thermal correction to Energy=                    0.006107
 Thermal correction to Enthalpy=                  0.007051
 Thermal correction to Gibbs Free Energy=        -0.015201
 Sum of electronic and zero-point Energies=           -150.253683
 Sum of electronic and thermal Energies=              -150.251320
 Sum of electronic and thermal Enthalpies=            -150.250376
 Sum of electronic and thermal Free Energies=         -150.272627

                     E (Thermal)             CV                S
                      KCal/Mol        Cal/Mol-Kelvin    Cal/Mol-Kelvin
 Total                    3.832              5.013             46.832
 Electronic               0.000              0.000              0.000
 Translational            0.889              2.981             36.321
 Rotational               0.592              1.987             10.505
 Vibrational              2.351              0.045              0.006

 Optimization completed.
    -- Stationary point found.
 Normal termination of Gaussian 09 at Fri Jan 15 19:09:55 2021.
