 Gaussian 09, Revision D.01,
 Gaussian 09:  EM64M-G09RevD.01 24-Apr-2013

 -----------------------------------------------------
 #p opt=calcfc freq b3lyp/6-31g(d,p) geom=connectivity
 -----------------------------------------------------

 -------------------
 Title Card Required
 -------------------
 Symbolic Z-matrix:
 Charge =  0 Multiplicity = 3

 SCF Done:  E(UB3LYP) =  -150.320038908     A.U. after   10 cycles
 SCF Done:  E(UB3LYP) =  -150.320042082     A.U. after    6 cycles
 Optimization completed.
    -- Stationary point found.
 Normal termination of Gaussian 09 at Sat Jan 16 17:15:50 2021.

 ----------------------------------------------------------------------
 #P Geom=AllCheck Guess=TCheck SCRF=Check GenChk UB3LYP/6-31G(d,p) Freq
 ----------------------------------------------------------------------

 Structure from the checkpoint file:  "o2_triplet.chk"
 -------------------
 Title Card Required
 -------------------
 Charge =  0 Multiplicity = 3

                         Standard orientation:
 ---------------------------------------------------------------------
 Center     Atomic      Atomic             Coordinates (Angstroms)
 Number     Number       Type             X           Y           Z
 ---------------------------------------------------------------------
      1          8           0        0.000000    0.000000    0.607259
      2          8           0        0.000000    0.000000   -0.607259
 ---------------------------------------------------------------------

 SCF Done:  E(UB3LYP) =  -150.320042082     A.U. after    1 cycles

 The electronic state is 3-SGG.
 Alpha  occ. eigenvalues --  -19.31226 -19.31209  -1.30184  -0.83797  -0.55941
 Alpha  occ. eigenvalues --   -0.55941  -0.54742  -0.30815  -0.30815
 Alpha virt. eigenvalues --    0.19646   0.66955   0.70864   0.77676   0.77676
 Alpha virt. eigenvalues --    0.85637   0.89571   0.89571   1.27392   1.48639
 Alpha virt. eigenvalues --    1.48639   1.51346   1.51347   1.89295   1.89297

  Beta  occ. eigenvalues --  -19.28294 -19.28265  -1.24393  -0.74931  -0.50777
  Beta  occ. eigenvalues --   -0.45696  -0.45696
  Beta virt. eigenvalues --   -0.11276  -0.11276   0.24069   0.68830   0.72645
  Beta virt. eigenvalues --    0.83244   0.83244   0.86822   0.95366   0.95366
  Beta virt. eigenvalues --    1.30137   1.51969   1.51969   1.56920   1.56921

 Mulliken charges and spin densities:
               1          2
     1  O    0.000000   1.000000
     2  O    0.000000   1.000000
 Sum of Mulliken charges =   0.00000   2.00000

 Dipole moment (field-independent basis, Debye):
    X=              0.0000    Y=              0.0000    Z=              0.0000  Tot=              0.0000
 Quadrupole moment (field-independent basis, Debye-Ang):
   XX=             -9.8034   YY=             -9.8034   ZZ=            -10.2622
   XY=              0.0000   XZ=              0.0000   YZ=              0.0000

  Exact polarizability:   4.226   0.000   4.226   0.000   0.000  12.422
 Approx polarizability:   5.308   0.000   5.308   0.000   0.000  24.254

                      1
                     SGG
 Frequencies --   1659.3037
 Red. masses --     15.9949
 Frc consts  --     25.9468
 IR Inten    --      0.0000

 - Thermochemistry -
 -------------------
 Temperature   298.150 Kelvin.  Pressure   1.00000 Atm.
 Atom     1 has atomic number  8 and mass  15.99491

 Molecular mass:    31.98983 amu.
 Principal axes and moments of inertia in atomic units:
                           1         2         3
     Eigenvalues --     0.00000  42.12666  42.12666
           X            0.00000   1.00000   0.00000
           Y            0.00000   0.00000   1.00000
           Z            1.00000   0.00000   0.00000
 This molecule is a prolate symmetric top.
 Rotational symmetry number  2.
 Rotational temperature (Kelvin)      2.05603
 Rotational constant (GHZ):          42.840837
 Zero-point vibrational energy       9924.8 (Joules/Mol)
                                    2.37209 (Kcal/Mol)
 Vibrational temperatures:   2387.36
          (Kelvin)

 Zero-point correction=                           0.003780 (Hartree/Particle)
 Thermal correction to Energy=                    0.006143
 Thermal correction to Enthalpy=                  0.007087
 Thermal correction to Gibbs Free Energy=        -0.016199
 Sum of electronic and zero-point Energies=           -150.316262
 Sum of electronic and thermal Energies=              -150.313899
 Sum of electronic and thermal Enthalpies=            -150.312955
 Sum of electronic and thermal Free Energies=         -150.336241

                     E (Thermal)             CV                S
                      KCal/Mol        Cal/Mol-Kelvin    Cal/Mol-Kelvin
 Total                    3.855              5.010             49.010
 Electronic               0.000              0.000              2.183
 Translational            0.889              2.981             36.321
 Rotational               0.592              1.987             10.500
 Vibrational              2.374              0.042              0.006

 Optimization completed.
    -- Stationary point found.
 Normal termination of Gaussian 09 at Sat Jan 16 17:15:53 2021.
