 Gaussian 09, Revision D.01,
 Gaussian 09:  ES64L-G09RevD.01 24-Apr-2013

 ----------------------------------------------------------------------
 #p opt=(calcall, ts, noeigen) b3lyp/def2tzvp em=gd3bj scrf=(smd,solven
 t=water) geom=connectivity
 ----------------------------------------------------------------------

 -------------------
 Title Card Required
 -------------------
 Symbolic Z-matrix:
 Charge =  0 Multiplicity = 1

 SCF Done:  E(RB3LYP) =  -1229.55129738     A.U. after   13 cycles
 SCF Done:  E(RB3LYP) =  -1229.58057962     A.U. after   14 cycles
 SCF Done:  E(RB3LYP) =  -1229.60266872     A.U. after   13 cycles
 SCF Done:  E(RB3LYP) =  -1229.61736727     A.U. after   14 cycles
 SCF Done:  E(RB3LYP) =  -1229.63162186     A.U. after   13 cycles
 SCF Done:  E(RB3LYP) =  -1229.63849065     A.U. after   13 cycles
 SCF Done:  E(RB3LYP) =  -1229.64060688     A.U. after   13 cycles
 SCF Done:  E(RB3LYP) =  -1229.64106231     A.U. after   11 cycles
 SCF Done:  E(RB3LYP) =  -1229.64113288     A.U. after   11 cycles
 SCF Done:  E(RB3LYP) =  -1229.64113870     A.U. after    8 cycles
 SCF Done:  E(RB3LYP) =  -1229.64113939     A.U. after    9 cycles
 SCF Done:  E(RB3LYP) =  -1229.64113949     A.U. after    6 cycles
 Optimization completed.
    -- Stationary point found.

                         Standard orientation:
 ---------------------------------------------------------------------
 Center     Atomic      Atomic             Coordinates (Angstroms)
 Number     Number       Type             X           Y           Z
 ---------------------------------------------------------------------
      1         78           0       -0.176564   -0.204792    0.029540
      2         17           0        2.190685    0.566076   -0.958962
      3          8           0        1.060742   -1.883619    0.384856
      4          1           0        0.775643   -2.663419   -0.117355
      5          1           0        1.881953   -1.569164   -0.049456
      6          7           0       -1.877957   -1.346463   -0.214607
      7          1           0       -2.496432   -1.242883    0.585962
      8          1           0       -2.390085   -1.053847   -1.042455
      9         17           0       -1.475315    1.654391   -0.364978
     10          7           0        0.962747    1.093865    1.893724
     11          1           0        1.105379    0.656574    2.797456
     12          1           0        1.862580    1.314535    1.481685
     13          1           0       -1.652627   -2.333681   -0.313675
     14          1           0        0.444802    1.954836    2.028015
 ---------------------------------------------------------------------

 The electronic state is 1-A.
 Alpha  occ. eigenvalues -- -101.47216-101.43539 -19.18778 -14.37125 -14.30159
 Alpha  occ. eigenvalues --   -9.40403  -9.36758  -7.16364  -7.15802  -7.15797
 Alpha  occ. eigenvalues --   -7.12480  -7.12297  -7.12250  -3.92317  -2.18429
 Alpha  occ. eigenvalues --   -2.17261  -2.13584  -1.06151  -0.91252  -0.85699
 Alpha  occ. eigenvalues --   -0.76292  -0.72432  -0.57540  -0.51897  -0.51729
 Alpha  occ. eigenvalues --   -0.47864  -0.47144  -0.46884  -0.42391  -0.40770
 Alpha  occ. eigenvalues --   -0.34117  -0.32668  -0.31850  -0.30781  -0.30201
 Alpha  occ. eigenvalues --   -0.26724  -0.26301  -0.24592  -0.23047  -0.21953
 Alpha  occ. eigenvalues --   -0.20096
 Alpha virt. eigenvalues --   -0.07215   0.00283   0.04316   0.05619   0.06331
 Alpha virt. eigenvalues --    0.09622   0.10824   0.11430   0.11952   0.13366
 Alpha virt. eigenvalues --    0.14310   0.15191   0.16345   0.20400   0.26571

 Mulliken charges:
               1
     1  Pt   0.490176
     2  Cl  -0.689390
     3  O   -0.563683
     4  H    0.411872
     5  H    0.367819
     6  N   -0.560767
     7  H    0.314056
     8  H    0.311707
     9  Cl  -0.498076
    10  N   -0.681615
    11  H    0.267027
    12  H    0.251398
    13  H    0.316163
    14  H    0.263313
 Sum of Mulliken charges =   0.00000

 Dipole moment (field-independent basis, Debye):
    X=             -5.4076    Y=            -11.1346    Z=              4.5793  Tot=             13.1982
 Quadrupole moment (field-independent basis, Debye-Ang):
   XX=            -71.0667   YY=            -56.4185   ZZ=            -68.8604
   XY=              6.7807   XZ=              8.6571   YZ=             10.2788

  Exact polarizability: 143.747  -0.063 132.976  -3.291   3.065 118.890
 Approx polarizability: 156.077  -4.180 146.747  -5.107  -1.808 128.686

 ******    1 imaginary frequencies (negative Signs) ******

                      1                      2                      3
                      A                      A                      A
 Frequencies --   -207.7709                73.7530                87.2499
 Red. masses --      6.3635                 3.0954                 1.2356
 Frc consts  --      0.1619                 0.0099                 0.0055
 IR Inten    --     50.0142                25.3687                 3.2872

                      4                      5                      6
                      A                      A                      A
 Frequencies --    101.1161               110.5288               132.4884
 Red. masses --      6.2896                 1.0624                 4.9281
 Frc consts  --      0.0379                 0.0076                 0.0510
 IR Inten    --      1.9915                 2.9391                11.6648

                      7                      8                      9
                      A                      A                      A
 Frequencies --    134.7764               159.4945               180.3929
 Red. masses --      3.1208                 6.6003                 5.2233
 Frc consts  --      0.0334                 0.0989                 0.1001
 IR Inten    --     35.9589                40.1368                16.0650

                     10                     11                     12
                      A                      A                      A
 Frequencies --    212.3955               222.1648               317.8338
 Red. masses --      4.5584                 6.4194                 1.0508
 Frc consts  --      0.1212                 0.1867                 0.0625
 IR Inten    --     39.6320                31.2905               138.6863

                     13                     14                     15
                      A                      A                      A
 Frequencies --    335.6178               389.3578               406.7897
 Red. masses --     28.4478                 1.3391                 4.2292
 Frc consts  --      1.8879                 0.1196                 0.4123
 IR Inten    --     38.9392                14.8602                71.6049

                     16                     17                     18
                      A                      A                      A
 Frequencies --    424.2446               477.9890               727.8945
 Red. masses --      1.2262                 4.4776                 1.1422
 Frc consts  --      0.1300                 0.6027                 0.3566
 IR Inten    --     94.0730                 5.7976               389.6156

                     19                     20                     21
                      A                      A                      A
 Frequencies --    749.9804               791.0816               864.0885
 Red. masses --      1.1351                 1.1464                 1.0861
 Frc consts  --      0.3762                 0.4227                 0.4778
 IR Inten    --    151.9949                16.5312                47.0116

                     22                     23                     24
                      A                      A                      A
 Frequencies --   1021.8333              1285.8981              1596.8850
 Red. masses --      1.1862                 1.1651                 1.0699
 Frc consts  --      0.7297                 1.1351                 1.6074
 IR Inten    --    260.4673                92.0194                52.4703

                     25                     26                     27
                      A                      A                      A
 Frequencies --   1603.9135              1606.8439              1620.0467
 Red. masses --      1.0634                 1.0583                 1.0629
 Frc consts  --      1.6118                 1.6100                 1.6436
 IR Inten    --     48.9298                77.5296               112.9021

                     28                     29                     30
                      A                      A                      A
 Frequencies --   1620.6820              3447.0772              3450.4010
 Red. masses --      1.0637                 1.0275                 1.0248
 Frc consts  --      1.6462                 7.1935                 7.1880
 IR Inten    --     36.3131                46.9407                 1.9868

                     31                     32                     33
                      A                      A                      A
 Frequencies --   3519.9216              3537.3369              3546.3883
 Red. masses --      1.0588                 1.0923                 1.0918
 Frc consts  --      7.7293                 8.0525                 8.0907
 IR Inten    --    313.5417                97.6130                90.1120

                     34                     35                     36
                      A                      A                      A
 Frequencies --   3576.2009              3587.4029              3741.7870
 Red. masses --      1.0929                 1.0924                 1.0690
 Frc consts  --      8.2352                 8.2828                 8.8185
 IR Inten    --     54.6747                32.0900               257.0668

 - Thermochemistry -
 -------------------
 Temperature   298.150 Kelvin.  Pressure   1.00000 Atm.
 Atom     1 has atomic number 78 and mass 194.96480

 Molecular mass:   316.96617 amu.
 Principal axes and moments of inertia in atomic units:
                           1         2         3
     Eigenvalues --  1224.242771641.680592118.49865
           X            0.99712   0.06306   0.04204
           Y           -0.06632   0.99448   0.08126
           Z           -0.03668  -0.08382   0.99581
 This molecule is an asymmetric top.
 Rotational symmetry number  1.
 Warning -- assumption of classical behavior for rotation
           may cause significant error
 Rotational temperatures (Kelvin)      0.07075     0.05276     0.04088
 Rotational constants (GHZ):           1.47417     1.09933     0.85190
    1 imaginary frequencies ignored.
 Zero-point vibrational energy     273118.5 (Joules/Mol)
                                   65.27690 (Kcal/Mol)
 Warning -- explicit consideration of  16 degrees of freedom as
           vibrations may cause significant error
 Vibrational temperatures:    106.11   125.53   145.48   159.03   190.62
          (Kelvin)            193.91   229.48   259.54   305.59   319.65
                              457.29   482.88   560.20   585.28   610.39
                              687.72  1047.28  1079.05  1138.19  1243.23
                             1470.19  1850.12  2297.56  2307.67  2311.89
                             2330.88  2331.80  4959.57  4964.35  5064.38
                             5089.43  5102.46  5145.35  5161.47  5383.59

 Zero-point correction=                           0.104025 (Hartree/Particle)
 Thermal correction to Energy=                    0.115808
 Thermal correction to Enthalpy=                  0.116753
 Thermal correction to Gibbs Free Energy=         0.064856
 Sum of electronic and zero-point Energies=          -1229.537114
 Sum of electronic and thermal Energies=             -1229.525331
 Sum of electronic and thermal Enthalpies=           -1229.524387
 Sum of electronic and thermal Free Energies=        -1229.576284

                     E (Thermal)             CV                S
                      KCal/Mol        Cal/Mol-Kelvin    Cal/Mol-Kelvin
 Total                   72.671             37.404            109.226
 Electronic               0.000              0.000              0.000
 Translational            0.889              2.981             43.157
 Rotational               0.889              2.981             29.833
 Vibrational             70.893             31.442             36.237
 Vibration     1          0.599              1.966              4.051
 Vibration     2          0.601              1.958              3.721
 Vibration     3          0.604              1.948              3.433
 Vibration     4          0.606              1.941              3.260
 Vibration     5          0.613              1.921              2.910
 Vibration     6          0.613              1.919              2.877
 Vibration     7          0.621              1.892              2.556
 Vibration     8          0.629              1.866              2.324
 Vibration     9          0.643              1.822              2.023
 Vibration    10          0.648              1.807              1.941
 Vibration    11          0.704              1.640              1.321
 Vibration    12          0.717              1.604              1.233
 Vibration    13          0.757              1.493              1.003
 Vibration    14          0.772              1.455              0.938
 Vibration    15          0.786              1.418              0.878
 Vibration    16          0.834              1.299              0.716

 Normal termination of Gaussian 09 at Wed Dec 23 10:25:59 2020.
