 Gaussian 09, Revision D.01,
 Gaussian 09:  ES64L-G09RevD.01 24-Apr-2013

 ----------------------------------------------------------------------
 #p opt=(calcall, ts, noeigen) b3lyp/def2tzvp em=gd3bj scrf=(smd,solven
 t=water) geom=connectivity
 ----------------------------------------------------------------------

 -------------------
 Title Card Required
 -------------------
 Symbolic Z-matrix:
 Charge =  0 Multiplicity = 1

 SCF Done:  E(RB3LYP) =  -1229.54501668     A.U. after   13 cycles
 SCF Done:  E(RB3LYP) =  -1229.57383274     A.U. after   14 cycles
 SCF Done:  E(RB3LYP) =  -1229.59918227     A.U. after   14 cycles
 SCF Done:  E(RB3LYP) =  -1229.61979031     A.U. after   14 cycles
 SCF Done:  E(RB3LYP) =  -1229.63811120     A.U. after   13 cycles
 SCF Done:  E(RB3LYP) =  -1229.64820145     A.U. after   13 cycles
 SCF Done:  E(RB3LYP) =  -1229.65278947     A.U. after   13 cycles
 SCF Done:  E(RB3LYP) =  -1229.65371464     A.U. after   13 cycles
 SCF Done:  E(RB3LYP) =  -1229.65395817     A.U. after   11 cycles
 SCF Done:  E(RB3LYP) =  -1229.65410344     A.U. after   11 cycles
 SCF Done:  E(RB3LYP) =  -1229.65397269     A.U. after   11 cycles
 SCF Done:  E(RB3LYP) =  -1229.65396902     A.U. after   11 cycles
 SCF Done:  E(RB3LYP) =  -1229.65409930     A.U. after   10 cycles
 SCF Done:  E(RB3LYP) =  -1229.65409104     A.U. after   10 cycles
 SCF Done:  E(RB3LYP) =  -1229.65410282     A.U. after   10 cycles
 SCF Done:  E(RB3LYP) =  -1229.65410382     A.U. after   10 cycles
 SCF Done:  E(RB3LYP) =  -1229.65410734     A.U. after    8 cycles
 SCF Done:  E(RB3LYP) =  -1229.65410722     A.U. after    6 cycles
 Optimization completed.
    -- Stationary point found.

                         Standard orientation:
 ---------------------------------------------------------------------
 Center     Atomic      Atomic             Coordinates (Angstroms)
 Number     Number       Type             X           Y           Z
 ---------------------------------------------------------------------
      1         78           0        0.004700    0.150602    0.029680
      2          7           0        0.160328   -2.030417   -1.445801
      3          1           0       -0.549834   -2.756351   -1.471211
      4          1           0        0.147185   -1.560876   -2.344103
      5         17           0       -2.332304    0.220531   -0.041953
      6          8           0       -0.225950   -1.844211    1.436730
      7          1           0       -0.134929   -2.563176    0.796271
      8          1           0       -1.175395   -1.800792    1.623036
      9          7           0        0.076934    2.154228   -0.253368
     10          1           0        0.573183    2.608985    0.509256
     11          1           0        0.562706    2.377598   -1.118794
     12         17           0        2.341290    0.118780    0.144412
     13          1           0        1.067282   -2.475711   -1.347937
     14          1           0       -0.862814    2.542081   -0.303001
 ---------------------------------------------------------------------

 The electronic state is 1-A.
 Alpha  occ. eigenvalues -- -101.46810-101.46460 -19.15024 -14.37684 -14.30497
 Alpha  occ. eigenvalues --   -9.40004  -9.39654  -7.15906  -7.15568  -7.15440
 Alpha  occ. eigenvalues --   -7.15421  -7.15078  -7.15071  -3.92139  -2.17786
 Alpha  occ. eigenvalues --   -2.17522  -2.13489  -1.03037  -0.91716  -0.86079
 Alpha  occ. eigenvalues --   -0.76219  -0.75179  -0.54538  -0.52547  -0.52194
 Alpha  occ. eigenvalues --   -0.47177  -0.46975  -0.43845  -0.41872  -0.38588
 Alpha  occ. eigenvalues --   -0.36107  -0.32457  -0.32106  -0.31451  -0.30478
 Alpha  occ. eigenvalues --   -0.28691  -0.28395  -0.23633  -0.23326  -0.21817
 Alpha  occ. eigenvalues --   -0.21538
 Alpha virt. eigenvalues --   -0.06957   0.00899   0.03863   0.04230   0.08314
 Alpha virt. eigenvalues --    0.09051   0.10091   0.11668   0.11993   0.12102
 Alpha virt. eigenvalues --    0.13636   0.14122   0.17035   0.21100   0.27184

 Mulliken charges:
               1
     1  Pt   0.459942
     2  N   -0.716929
     3  H    0.268693
     4  H    0.276832
     5  Cl  -0.544058
     6  O   -0.642077
     7  H    0.376477
     8  H    0.375965
     9  N   -0.515184
    10  H    0.317389
    11  H    0.316205
    12  Cl  -0.551896
    13  H    0.271854
    14  H    0.306788
 Sum of Mulliken charges =   0.00000

 Dipole moment (field-independent basis, Debye):
    X=             -1.2696    Y=              0.2700    Z=             -3.6160  Tot=              3.8419
 Quadrupole moment (field-independent basis, Debye-Ang):
   XX=            -90.4196   YY=            -38.1611   ZZ=            -66.9170
   XY=              4.0195   XZ=             -4.7417   YZ=              2.2961

  Exact polarizability: 155.021  -0.960 123.175  -1.037   2.677 111.014
 Approx polarizability: 181.698  -1.454 129.883   0.387   1.326 120.209

 ******    1 imaginary frequencies (negative Signs) ******

                      1                      2                      3
                      A                      A                      A
 Frequencies --   -233.7977                60.6782                84.4978
 Red. masses --      4.4625                 3.3590                 2.7557
 Frc consts  --      0.1437                 0.0073                 0.0116
 IR Inten    --      9.7302                19.4771                36.1058

                      4                      5                      6
                      A                      A                      A
 Frequencies --    101.2867               118.9182               128.6728
 Red. masses --      3.1605                 1.8129                 1.7839
 Frc consts  --      0.0191                 0.0151                 0.0174
 IR Inten    --      4.8994                11.7040                 2.0140

                      7                      8                      9
                      A                      A                      A
 Frequencies --    133.4413               142.1246               158.0226
 Red. masses --      2.6380                 2.3464                 1.8596
 Frc consts  --      0.0277                 0.0279                 0.0274
 IR Inten    --      2.0614                28.4646               162.3843

                     10                     11                     12
                      A                      A                      A
 Frequencies --    183.5457               194.4752               239.7908
 Red. masses --      2.1722                 2.9852                 2.4511
 Frc consts  --      0.0431                 0.0665                 0.0830
 IR Inten    --     83.8176                75.1751                71.1448

                     13                     14                     15
                      A                      A                      A
 Frequencies --    250.6558               308.8775               312.2141
 Red. masses --      1.6707                31.3374                31.8884
 Frc consts  --      0.0618                 1.7615                 1.8314
 IR Inten    --     67.8604               103.1165                 1.8299

                     16                     17                     18
                      A                      A                      A
 Frequencies --    399.8229               508.4149               516.0668
 Red. masses --      1.1801                 1.1010                 2.0894
 Frc consts  --      0.1112                 0.1677                 0.3279
 IR Inten    --     74.2354               268.9691                52.3898

                     19                     20                     21
                      A                      A                      A
 Frequencies --    533.4924               790.2887               829.1191
 Red. masses --      1.4944                 1.1333                 1.1770
 Frc consts  --      0.2506                 0.4170                 0.4767
 IR Inten    --     49.0815                73.5607                24.7805

                     22                     23                     24
                      A                      A                      A
 Frequencies --   1069.6020              1296.9125              1596.0846
 Red. masses --      1.1810                 1.1724                 1.0800
 Frc consts  --      0.7960                 1.1618                 1.6211
 IR Inten    --    203.8185               121.3755               151.7749

                     25                     26                     27
                      A                      A                      A
 Frequencies --   1605.6400              1611.1965              1613.6734
 Red. masses --      1.0575                 1.0574                 1.0665
 Frc consts  --      1.6063                 1.6173                 1.6362
 IR Inten    --     67.6695                41.2486                36.3173

                     28                     29                     30
                      A                      A                      A
 Frequencies --   1621.7361              3436.5018              3457.7236
 Red. masses --      1.0633                 1.0278                 1.0263
 Frc consts  --      1.6476                 7.1512                 7.2291
 IR Inten    --     23.3248                31.6934                 3.7221

                     31                     32                     33
                      A                      A                      A
 Frequencies --   3527.5691              3532.5556              3573.2266
 Red. masses --      1.0926                 1.0920                 1.0916
 Frc consts  --      8.0105                 8.0290                 8.2115
 IR Inten    --     88.8433               107.0533                30.2409

                     34                     35                     36
                      A                      A                      A
 Frequencies --   3579.8961              3735.3163              3814.2442
 Red. masses --      1.0905                 1.0457                 1.0807
 Frc consts  --      8.2344                 8.5960                 9.2639
 IR Inten    --     41.0552                62.0395               176.9545

 - Thermochemistry -
 -------------------
 Temperature   298.150 Kelvin.  Pressure   1.00000 Atm.
 Atom     1 has atomic number 78 and mass 194.96480

 Molecular mass:   316.96617 amu.
 Principal axes and moments of inertia in atomic units:
                           1         2         3
     Eigenvalues --  1096.835871663.802602200.73089
           X            0.99986   0.01287  -0.01103
           Y           -0.01258   0.99959   0.02582
           Z            0.01136  -0.02567   0.99961
 This molecule is an asymmetric top.
 Rotational symmetry number  1.
 Warning -- assumption of classical behavior for rotation
           may cause significant error
 Rotational temperatures (Kelvin)      0.07897     0.05206     0.03936
 Rotational constants (GHZ):           1.64541     1.08471     0.82006
    1 imaginary frequencies ignored.
 Zero-point vibrational energy     269556.2 (Joules/Mol)
                                   64.42549 (Kcal/Mol)
 Warning -- explicit consideration of  18 degrees of freedom as
           vibrations may cause significant error
 Vibrational temperatures:     87.30   121.57   145.73   171.10   185.13
          (Kelvin)            191.99   204.49   227.36   264.08   279.81
                              345.00   360.64   444.41   449.21   575.26
                              731.49   742.50   767.58  1137.05  1192.92
                             1538.92  1865.97  2296.41  2310.15  2318.15
                             2321.71  2333.31  4944.35  4974.89  5075.38
                             5082.55  5141.07  5150.67  5374.28  5487.84

 Zero-point correction=                           0.102669 (Hartree/Particle)
 Thermal correction to Energy=                    0.115254
 Thermal correction to Enthalpy=                  0.116199
 Thermal correction to Gibbs Free Energy=         0.062524
 Sum of electronic and zero-point Energies=          -1229.551439
 Sum of electronic and thermal Energies=             -1229.538853
 Sum of electronic and thermal Enthalpies=           -1229.537909
 Sum of electronic and thermal Free Energies=        -1229.591584

                     E (Thermal)             CV                S
                      KCal/Mol        Cal/Mol-Kelvin    Cal/Mol-Kelvin
 Total                   72.323             39.058            112.969
 Electronic               0.000              0.000              0.000
 Translational            0.889              2.981             43.157
 Rotational               0.889              2.981             29.775
 Vibrational             70.546             33.096             40.037
 Vibration     1          0.597              1.973              4.435
 Vibration     2          0.601              1.960              3.784
 Vibration     3          0.604              1.948              3.429
 Vibration     4          0.609              1.934              3.118
 Vibration     5          0.611              1.925              2.966
 Vibration     6          0.613              1.920              2.896
 Vibration     7          0.616              1.911              2.775
 Vibration     8          0.621              1.894              2.573
 Vibration     9          0.631              1.862              2.292
 Vibration    10          0.635              1.848              2.185
 Vibration    11          0.657              1.780              1.804
 Vibration    12          0.663              1.762              1.726
 Vibration    13          0.698              1.657              1.368
 Vibration    14          0.701              1.650              1.351
 Vibration    15          0.766              1.470              0.963
 Vibration    16          0.864              1.231              0.637
 Vibration    17          0.871              1.214              0.619
 Vibration    18          0.888              1.176              0.579

 Normal termination of Gaussian 09 at Wed Dec 23 10:26:37 2020.
