 Gaussian 09, Revision D.01,
 Gaussian 09:  ES64L-G09RevD.01 24-Apr-2013

 ----------------------------------------------------------------------
 #p opt=(calcall, ts, noeigen) b3lyp/def2tzvp em=gd3bj scrf=(smd,solven
 t=water) geom=connectivity
 ----------------------------------------------------------------------

 -------------------
 Title Card Required
 -------------------
 Symbolic Z-matrix:
 Charge =  0 Multiplicity = 1

 SCF Done:  E(RB3LYP) =  -1229.55778855     A.U. after   13 cycles
 SCF Done:  E(RB3LYP) =  -1229.59242864     A.U. after   13 cycles
 SCF Done:  E(RB3LYP) =  -1229.61778955     A.U. after   13 cycles
 SCF Done:  E(RB3LYP) =  -1229.63464476     A.U. after   12 cycles
 SCF Done:  E(RB3LYP) =  -1229.64981416     A.U. after   13 cycles
 SCF Done:  E(RB3LYP) =  -1229.65775259     A.U. after   13 cycles
 SCF Done:  E(RB3LYP) =  -1229.66138321     A.U. after   11 cycles
 SCF Done:  E(RB3LYP) =  -1229.66494832     A.U. after   13 cycles
 SCF Done:  E(RB3LYP) =  -1229.66734061     A.U. after   12 cycles
 SCF Done:  E(RB3LYP) =  -1229.66825857     A.U. after   11 cycles
 SCF Done:  E(RB3LYP) =  -1229.66787627     A.U. after   12 cycles
 SCF Done:  E(RB3LYP) =  -1229.66859866     A.U. after   12 cycles
 SCF Done:  E(RB3LYP) =  -1229.66798694     A.U. after   12 cycles
 SCF Done:  E(RB3LYP) =  -1229.66863200     A.U. after   12 cycles
 SCF Done:  E(RB3LYP) =  -1229.66871464     A.U. after   10 cycles
 SCF Done:  E(RB3LYP) =  -1229.66871169     A.U. after   10 cycles
 SCF Done:  E(RB3LYP) =  -1229.66872659     A.U. after   10 cycles
 SCF Done:  E(RB3LYP) =  -1229.66872728     A.U. after    9 cycles
 SCF Done:  E(RB3LYP) =  -1229.66872798     A.U. after    7 cycles
 Optimization completed.
    -- Stationary point found.

                         Standard orientation:
 ---------------------------------------------------------------------
 Center     Atomic      Atomic             Coordinates (Angstroms)
 Number     Number       Type             X           Y           Z
 ---------------------------------------------------------------------
      1         78           0        0.240536   -0.199467   -0.053973
      2          7           0       -0.652475   -2.038622   -0.340259
      3          1           0       -1.582855   -1.987249    0.073277
      4          1           0       -0.755072   -2.245382   -1.331463
      5          7           0        2.000614   -1.084444    0.457011
      6          1           0        2.697272   -0.373632    0.671802
      7          1           0        1.885718   -1.674886    1.278196
      8         17           0       -2.385671    0.369467    0.930971
      9         17           0        1.227988    1.896426    0.236770
     10          8           0       -1.269424    0.872391   -1.761701
     11          1           0       -0.865924    1.751494   -1.794926
     12          1           0       -1.945116    0.926913   -1.049011
     13          1           0       -0.154319   -2.815170    0.088399
     14          1           0        2.357521   -1.661531   -0.301610
 ---------------------------------------------------------------------

 The electronic state is 1-A.
 Alpha  occ. eigenvalues -- -101.46735-101.43124 -19.13886 -14.38066 -14.36573
 Alpha  occ. eigenvalues --   -9.39950  -9.36365  -7.15838  -7.15390  -7.15372
 Alpha  occ. eigenvalues --   -7.12040  -7.11925  -7.11879  -3.92930  -2.18703
 Alpha  occ. eigenvalues --   -2.18182  -2.14273  -1.01838  -0.92150  -0.90985
 Alpha  occ. eigenvalues --   -0.75933  -0.72102  -0.53768  -0.53302  -0.52621
 Alpha  occ. eigenvalues --   -0.51575  -0.51014  -0.43838  -0.43188  -0.41116
 Alpha  occ. eigenvalues --   -0.35588  -0.32463  -0.31577  -0.31114  -0.29461
 Alpha  occ. eigenvalues --   -0.26580  -0.25903  -0.25233  -0.23703  -0.23588
 Alpha  occ. eigenvalues --   -0.21872
 Alpha virt. eigenvalues --   -0.07007   0.00724   0.04361   0.05638   0.05923
 Alpha virt. eigenvalues --    0.09314   0.10387   0.11301   0.11742   0.12359
 Alpha virt. eigenvalues --    0.14033   0.15624   0.17396   0.21338   0.27284

 Mulliken charges:
               1
     1  Pt   0.420547
     2  N   -0.547286
     3  H    0.291022
     4  H    0.314254
     5  N   -0.545038
     6  H    0.308157
     7  H    0.323193
     8  Cl  -0.708438
     9  Cl  -0.542996
    10  O   -0.651717
    11  H    0.369128
    12  H    0.332440
    13  H    0.312522
    14  H    0.324210
 Sum of Mulliken charges =   0.00000

 Dipole moment (field-independent basis, Debye):
    X=              8.3659    Y=            -12.7583    Z=             -2.5897  Tot=             15.4747
 Quadrupole moment (field-independent basis, Debye-Ang):
   XX=            -74.1488   YY=            -54.1451   ZZ=            -74.5427
   XY=             -7.5416   XZ=              9.9002   YZ=             -4.4029

  Exact polarizability: 140.705   4.589 133.991  -4.003  -1.180 114.480
 Approx polarizability: 151.584   7.726 148.890  -5.616   0.594 127.284

 ******    1 imaginary frequencies (negative Signs) ******

                      1                      2                      3
                      A                      A                      A
 Frequencies --   -201.7865                66.2599               103.9645
 Red. masses --     10.3157                 6.3471                 2.2855
 Frc consts  --      0.2475                 0.0164                 0.0146
 IR Inten    --     32.4135                 5.6289                17.2929

                      4                      5                      6
                      A                      A                      A
 Frequencies --    114.0442               117.9038               143.8799
 Red. masses --      1.8222                 4.1366                 1.0639
 Frc consts  --      0.0140                 0.0339                 0.0130
 IR Inten    --     24.2321                22.8016                 2.5267

                      7                      8                      9
                      A                      A                      A
 Frequencies --    151.3168               157.1480               173.8159
 Red. masses --      4.4835                 5.2473                 5.4886
 Frc consts  --      0.0605                 0.0763                 0.0977
 IR Inten    --     31.2921                30.2002                44.9682

                     10                     11                     12
                      A                      A                      A
 Frequencies --    211.3448               239.6685               317.6755
 Red. masses --      3.0838                 9.3555                33.6166
 Frc consts  --      0.0812                 0.3166                 1.9988
 IR Inten    --     39.3423                30.8321                54.8864

                     13                     14                     15
                      A                      A                      A
 Frequencies --    371.1506               488.3001               507.4724
 Red. masses --      1.0618                 4.0055                 3.4405
 Frc consts  --      0.0862                 0.5627                 0.5220
 IR Inten    --    127.4725                15.7850                34.7778

                     16                     17                     18
                      A                      A                      A
 Frequencies --    521.4709               685.1230               768.4541
 Red. masses --      1.1916                 1.0354                 1.1701
 Frc consts  --      0.1909                 0.2863                 0.4071
 IR Inten    --    247.9121               348.1766                28.3064

                     19                     20                     21
                      A                      A                      A
 Frequencies --    783.7470               792.1121               829.1434
 Red. masses --      1.1371                 1.1649                 1.1780
 Frc consts  --      0.4115                 0.4306                 0.4772
 IR Inten    --    118.0870                18.8962                53.4025

                     22                     23                     24
                      A                      A                      A
 Frequencies --   1285.5547              1296.6291              1585.6026
 Red. masses --      1.1751                 1.1686                 1.0771
 Frc consts  --      1.1442                 1.1576                 1.5954
 IR Inten    --    142.1164               110.5344                77.3847

                     25                     26                     27
                      A                      A                      A
 Frequencies --   1602.6297              1604.7786              1608.7768
 Red. masses --      1.0554                 1.0562                 1.0567
 Frc consts  --      1.5971                 1.6027                 1.6114
 IR Inten    --     52.5683                82.5889                16.0222

                     28                     29                     30
                      A                      A                      A
 Frequencies --   1615.1276              3413.3245              3422.6050
 Red. masses --      1.0566                 1.0616                 1.0317
 Frc consts  --      1.6240                 7.2873                 7.1207
 IR Inten    --     64.7371               517.5070                76.2843

                     31                     32                     33
                      A                      A                      A
 Frequencies --   3431.9204              3513.1223              3521.8670
 Red. masses --      1.0278                 1.0888                 1.0923
 Frc consts  --      7.1321                 7.9176                 7.9824
 IR Inten    --     43.1891               119.4289               102.2430

                     34                     35                     36
                      A                      A                      A
 Frequencies --   3529.4215              3536.3117              3775.8510
 Red. masses --      1.0921                 1.0919                 1.0670
 Frc consts  --      8.0152                 8.0449                 8.9631
 IR Inten    --    127.2045                74.3442               142.0630

 - Thermochemistry -
 -------------------
 Temperature   298.150 Kelvin.  Pressure   1.00000 Atm.
 Atom     1 has atomic number 78 and mass 194.96480

 Molecular mass:   316.96617 amu.
 Principal axes and moments of inertia in atomic units:
                           1         2         3
     Eigenvalues --  1237.798071679.631332240.06934
           X            0.99840  -0.04245   0.03746
           Y            0.04360   0.99859  -0.03040
           Z           -0.03611   0.03198   0.99884
 This molecule is an asymmetric top.
 Rotational symmetry number  1.
 Warning -- assumption of classical behavior for rotation
           may cause significant error
 Rotational temperatures (Kelvin)      0.06997     0.05157     0.03867
 Rotational constants (GHZ):           1.45803     1.07449     0.80566
    1 imaginary frequencies ignored.
 Zero-point vibrational energy     276860.8 (Joules/Mol)
                                   66.17133 (Kcal/Mol)
 Warning -- explicit consideration of  15 degrees of freedom as
           vibrations may cause significant error
 Vibrational temperatures:     95.33   149.58   164.08   169.64   207.01
          (Kelvin)            217.71   226.10   250.08   304.08   344.83
                              457.06   534.00   702.55   730.14   750.28
                              985.74  1105.63  1127.64  1139.67  1192.95
                             1849.62  1865.56  2281.33  2305.82  2308.92
                             2314.67  2323.81  4911.01  4924.36  4937.76
                             5054.59  5067.17  5078.04  5087.96  5432.60

 Zero-point correction=                           0.105451 (Hartree/Particle)
 Thermal correction to Energy=                    0.116671
 Thermal correction to Enthalpy=                  0.117616
 Thermal correction to Gibbs Free Energy=         0.066834
 Sum of electronic and zero-point Energies=          -1229.563277
 Sum of electronic and thermal Energies=             -1229.552056
 Sum of electronic and thermal Enthalpies=           -1229.551112
 Sum of electronic and thermal Free Energies=        -1229.601894

                     E (Thermal)             CV                S
                      KCal/Mol        Cal/Mol-Kelvin    Cal/Mol-Kelvin
 Total                   73.212             35.889            106.879
 Electronic               0.000              0.000              0.000
 Translational            0.889              2.981             43.157
 Rotational               0.889              2.981             29.922
 Vibrational             71.435             29.928             33.800
 Vibration     1          0.598              1.970              4.262
 Vibration     2          0.605              1.946              3.379
 Vibration     3          0.607              1.938              3.199
 Vibration     4          0.608              1.934              3.134
 Vibration     5          0.616              1.909              2.752
 Vibration     6          0.619              1.901              2.656
 Vibration     7          0.621              1.895              2.584
 Vibration     8          0.627              1.875              2.394
 Vibration     9          0.643              1.824              2.032
 Vibration    10          0.657              1.780              1.805
 Vibration    11          0.704              1.640              1.322
 Vibration    12          0.743              1.531              1.075
 Vibration    13          0.844              1.276              0.688
 Vibration    14          0.863              1.233              0.640
 Vibration    15          0.876              1.202              0.607

 Normal termination of Gaussian 09 at Wed Dec 23 10:35:52 2020.
