 Gaussian 09, Revision D.01,
 Gaussian 09:  ES64L-G09RevD.01 24-Apr-2013

 ---------------------------------------------------------------------
 #p opt=(calcall,ts,noeigen) b3lyp geom=connectivity def2tzvp em=gd3bj
 ---------------------------------------------------------------------

 -------------------
 Title Card Required
 -------------------
 Symbolic Z-matrix:
 Charge =  0 Multiplicity = 1

 SCF Done:  E(RB3LYP) =  -1229.63252916     A.U. after   14 cycles
 SCF Done:  E(RB3LYP) =  -1229.63439074     A.U. after   13 cycles
 SCF Done:  E(RB3LYP) =  -1229.63567774     A.U. after   12 cycles
 SCF Done:  E(RB3LYP) =  -1229.63629431     A.U. after   11 cycles
 SCF Done:  E(RB3LYP) =  -1229.63665553     A.U. after   11 cycles
 SCF Done:  E(RB3LYP) =  -1229.63686154     A.U. after   11 cycles
 SCF Done:  E(RB3LYP) =  -1229.63693166     A.U. after   10 cycles
 SCF Done:  E(RB3LYP) =  -1229.63693759     A.U. after    9 cycles
 Optimization completed.
    -- Stationary point found.

                         Standard orientation:
 ---------------------------------------------------------------------
 Center     Atomic      Atomic             Coordinates (Angstroms)
 Number     Number       Type             X           Y           Z
 ---------------------------------------------------------------------
      1         78           0        0.195656   -0.063619    0.111085
      2          7           0        0.490058   -1.977501   -0.583083
      3          1           0        0.081980   -2.640771    0.070581
      4          1           0        0.025816   -2.081927   -1.481916
      5         17           0        2.378698    0.455530   -0.363098
      6          8           0       -1.647676   -1.221432    1.190880
      7          1           0       -2.270314   -0.726278    0.583515
      8          1           0       -1.837824   -0.932317    2.090436
      9         17           0       -2.455643    0.564675   -0.910982
     10          7           0       -0.146032    1.881963    0.679734
     11          1           0       -1.049767    2.097518    0.243898
     12          1           0       -0.197541    2.028229    1.682834
     13          1           0        1.482661   -2.165070   -0.700858
     14          1           0        0.585117    2.479664    0.302628
 ---------------------------------------------------------------------

 The electronic state is 1-A.
 Alpha  occ. eigenvalues -- -101.48178-101.42203 -19.15754 -14.39867 -14.38744
 Alpha  occ. eigenvalues --   -9.41302  -9.35462  -7.17313  -7.16696  -7.16659
 Alpha  occ. eigenvalues --   -7.11124  -7.11024  -7.10978  -3.93818  -2.19957
 Alpha  occ. eigenvalues --   -2.18696  -2.15238  -1.03505  -0.94773  -0.93436
 Alpha  occ. eigenvalues --   -0.76951  -0.71410  -0.56347  -0.55555  -0.55274
 Alpha  occ. eigenvalues --   -0.54682  -0.54445  -0.48005  -0.43149  -0.39133
 Alpha  occ. eigenvalues --   -0.38645  -0.35021  -0.32573  -0.31978  -0.27736
 Alpha  occ. eigenvalues --   -0.27155  -0.26284  -0.25655  -0.24744  -0.24099
 Alpha  occ. eigenvalues --   -0.21026
 Alpha virt. eigenvalues --   -0.08109  -0.01955   0.00639   0.03006   0.05456
 Alpha virt. eigenvalues --    0.07163   0.07702   0.08005   0.10453   0.10674
 Alpha virt. eigenvalues --    0.12145   0.15048   0.17649   0.18282   0.24027

 Mulliken charges:
               1
     1  Pt   0.360639
     2  N   -0.511161
     3  H    0.289611
     4  H    0.289754
     5  Cl  -0.454888
     6  O   -0.623662
     7  H    0.340249
     8  H    0.324824
     9  Cl  -0.624451
    10  N   -0.494405
    11  H    0.284247
    12  H    0.260883
    13  H    0.280508
    14  H    0.277852
 Sum of Mulliken charges =   0.00000

 Dipole moment (field-independent basis, Debye):
    X=              1.4852    Y=             -1.9282    Z=              3.7889  Tot=              4.5033
 Quadrupole moment (field-independent basis, Debye-Ang):
   XX=            -89.1063   YY=            -52.1453   ZZ=            -65.5444
   XY=             -1.3565   XZ=             -9.1557   YZ=              8.7842

  Exact polarizability: 116.838  -0.855  92.500   0.664  -0.430  78.019
 Approx polarizability: 179.029   0.352 139.992   2.780  -4.661 129.701

 ******    1 imaginary frequencies (negative Signs) ******

                      1                      2                      3
                      A                      A                      A
 Frequencies --   -171.6085                56.0620                96.6286
 Red. masses --     10.6290                 6.7148                 6.8035
 Frc consts  --      0.1844                 0.0124                 0.0374
 IR Inten    --     24.7635                 8.4020                 2.7133

                      4                      5                      6
                      A                      A                      A
 Frequencies --    121.9338               128.5867               159.4060
 Red. masses --      1.2971                 4.2704                 3.7036
 Frc consts  --      0.0114                 0.0416                 0.0554
 IR Inten    --      0.9116                 4.2265                 2.1024

                      7                      8                      9
                      A                      A                      A
 Frequencies --    186.5301               192.2309               213.8036
 Red. masses --      1.0840                 2.7364                 6.4376
 Frc consts  --      0.0222                 0.0596                 0.1734
 IR Inten    --      3.5208                14.3186                12.3015

                     10                     11                     12
                      A                      A                      A
 Frequencies --    232.5800               286.0624               339.9324
 Red. masses --      3.0977                 8.6779                34.7640
 Frc consts  --      0.0987                 0.4184                 2.3668
 IR Inten    --     59.2646                26.9459                24.3770

                     13                     14                     15
                      A                      A                      A
 Frequencies --    415.8865               473.8219               500.6765
 Red. masses --      1.0509                 2.8283                 1.3711
 Frc consts  --      0.1071                 0.3741                 0.2025
 IR Inten    --     87.9232                21.6922                73.1300

                     16                     17                     18
                      A                      A                      A
 Frequencies --    529.0671               737.4544               770.2223
 Red. masses --      4.3126                 1.1259                 1.1611
 Frc consts  --      0.7112                 0.3608                 0.4059
 IR Inten    --      0.5594                 2.5186                 1.3071

                     19                     20                     21
                      A                      A                      A
 Frequencies --    815.8844               830.6192               848.0775
 Red. masses --      1.1937                 1.1382                 1.1261
 Frc consts  --      0.4682                 0.4627                 0.4772
 IR Inten    --     18.7296               127.7310                75.4737

                     22                     23                     24
                      A                      A                      A
 Frequencies --   1258.2613              1270.2129              1593.3201
 Red. masses --      1.1752                 1.1787                 1.0726
 Frc consts  --      1.0962                 1.1205                 1.6043
 IR Inten    --    184.4382               113.5779                30.6247

                     25                     26                     27
                      A                      A                      A
 Frequencies --   1641.5552              1643.8810              1653.1919
 Red. masses --      1.0560                 1.0575                 1.0604
 Frc consts  --      1.6766                 1.6837                 1.7076
 IR Inten    --      6.7270                51.0426                16.2477

                     28                     29                     30
                      A                      A                      A
 Frequencies --   1659.9365              3093.6233              3322.6113
 Red. masses --      1.0583                 1.0671                 1.0479
 Frc consts  --      1.7180                 6.0169                 6.8163
 IR Inten    --     28.9718               472.3656                91.5377

                     31                     32                     33
                      A                      A                      A
 Frequencies --   3429.7244              3489.6117              3533.5533
 Red. masses --      1.0253                 1.0712                 1.0923
 Frc consts  --      7.1058                 7.6855                 8.0353
 IR Inten    --      4.9708                43.3029                40.8263

                     34                     35                     36
                      A                      A                      A
 Frequencies --   3540.9701              3545.3646              3822.3677
 Red. masses --      1.0930                 1.0912                 1.0662
 Frc consts  --      8.0743                 8.0815                 9.1782
 IR Inten    --     39.7209                31.4312                65.5133

 - Thermochemistry -
 -------------------
 Temperature   298.150 Kelvin.  Pressure   1.00000 Atm.
 Atom     1 has atomic number 78 and mass 194.96480

 Molecular mass:   316.96617 amu.
 Principal axes and moments of inertia in atomic units:
                           1         2         3
     Eigenvalues --   928.264221982.206452341.62439
           X            0.99975   0.00072  -0.02219
           Y            0.00096   0.99713   0.07567
           Z            0.02219  -0.07567   0.99689
 This molecule is an asymmetric top.
 Rotational symmetry number  1.
 Warning -- assumption of classical behavior for rotation
           may cause significant error
 Rotational temperatures (Kelvin)      0.09331     0.04370     0.03699
 Rotational constants (GHZ):           1.94421     0.91047     0.77072
    1 imaginary frequencies ignored.
 Zero-point vibrational energy     277734.9 (Joules/Mol)
                                   66.38024 (Kcal/Mol)
 Warning -- explicit consideration of  15 degrees of freedom as
           vibrations may cause significant error
 Vibrational temperatures:     80.66   139.03   175.44   185.01   229.35
          (Kelvin)            268.37   276.58   307.62   334.63   411.58
                              489.09   598.37   681.72   720.36   761.21
                             1061.03  1108.18  1173.87  1195.07  1220.19
                             1810.36  1827.55  2292.43  2361.83  2365.18
                             2378.57  2388.28  4451.03  4780.49  4934.60
                             5020.77  5083.99  5094.66  5100.98  5499.53

 Zero-point correction=                           0.105784 (Hartree/Particle)
 Thermal correction to Energy=                    0.116599
 Thermal correction to Enthalpy=                  0.117543
 Thermal correction to Gibbs Free Energy=         0.067759
 Sum of electronic and zero-point Energies=          -1229.531154
 Sum of electronic and thermal Energies=             -1229.520339
 Sum of electronic and thermal Enthalpies=           -1229.519395
 Sum of electronic and thermal Free Energies=        -1229.569178

                     E (Thermal)             CV                S
                      KCal/Mol        Cal/Mol-Kelvin    Cal/Mol-Kelvin
 Total                   73.167             35.254            104.778
 Electronic               0.000              0.000              0.000
 Translational            0.889              2.981             43.157
 Rotational               0.889              2.981             29.845
 Vibrational             71.389             29.292             31.776
 Vibration     1          0.596              1.975              4.591
 Vibration     2          0.603              1.952              3.521
 Vibration     3          0.609              1.931              3.069
 Vibration     4          0.611              1.925              2.967
 Vibration     5          0.621              1.892              2.557
 Vibration     6          0.632              1.858              2.262
 Vibration     7          0.634              1.851              2.206
 Vibration     8          0.644              1.820              2.011
 Vibration     9          0.653              1.791              1.859
 Vibration    10          0.684              1.700              1.497
 Vibration    11          0.720              1.596              1.212
 Vibration    12          0.779              1.436              0.906
 Vibration    13          0.831              1.308              0.727
 Vibration    14          0.856              1.249              0.656
 Vibration    15          0.884              1.186              0.589

 Normal termination of Gaussian 09 at Wed Dec 23 12:43:56 2020.
