 Gaussian 09, Revision D.01,
 Gaussian 09:  ES64L-G09RevD.01 24-Apr-2013

 --------------------------------------------------------
 #p opt=(calcall,ts,noeigen) freq b3lyp/def2tzvp em=gd3bj
 --------------------------------------------------------

 --------------------------
 Generated from Sexy Viewer
 --------------------------
 Symbolic Z-matrix:
 Charge =  0 Multiplicity = 1

 SCF Done:  E(RB3LYP) =  -1229.56693614     A.U. after   16 cycles
 SCF Done:  E(RB3LYP) =  -1229.57353738     A.U. after   13 cycles
 SCF Done:  E(RB3LYP) =  -1229.57807343     A.U. after   14 cycles
 SCF Done:  E(RB3LYP) =  -1229.58033170     A.U. after   14 cycles
 SCF Done:  E(RB3LYP) =  -1229.58193282     A.U. after   14 cycles
 SCF Done:  E(RB3LYP) =  -1229.58472074     A.U. after   14 cycles
 SCF Done:  E(RB3LYP) =  -1229.58602971     A.U. after   13 cycles
 SCF Done:  E(RB3LYP) =  -1229.59080165     A.U. after   13 cycles
 SCF Done:  E(RB3LYP) =  -1229.59647132     A.U. after   13 cycles
 SCF Done:  E(RB3LYP) =  -1229.60108170     A.U. after   13 cycles
 SCF Done:  E(RB3LYP) =  -1229.60407576     A.U. after   13 cycles
 SCF Done:  E(RB3LYP) =  -1229.60533034     A.U. after   12 cycles
 SCF Done:  E(RB3LYP) =  -1229.60604911     A.U. after   12 cycles
 SCF Done:  E(RB3LYP) =  -1229.60658216     A.U. after   12 cycles
 SCF Done:  E(RB3LYP) =  -1229.60677066     A.U. after   11 cycles
 SCF Done:  E(RB3LYP) =  -1229.60679249     A.U. after   10 cycles
 SCF Done:  E(RB3LYP) =  -1229.60679291     A.U. after    7 cycles
 Optimization completed.
    -- Stationary point found.
 ******    1 imaginary frequencies (negative Signs) ******
    1 imaginary frequencies ignored.
 Normal termination of Gaussian 09 at Mon Dec 28 13:22:17 2020.

 --------------------------------------------------------------------
 #P Geom=AllCheck Guess=TCheck SCRF=Check GenChk RB3LYP/def2TZVP Freq
 --------------------------------------------------------------------

 Structure from the checkpoint file:  "pt-n-o-ts-81.chk"
 --------------------------
 Generated from Sexy Viewer
 --------------------------
 Charge =  0 Multiplicity = 1

                         Standard orientation:
 ---------------------------------------------------------------------
 Center     Atomic      Atomic             Coordinates (Angstroms)
 Number     Number       Type             X           Y           Z
 ---------------------------------------------------------------------
      1         78           0        0.172587   -0.050655   -0.065383
      2         17           0        2.393850    0.541797    0.152559
      3         17           0       -2.336337    0.466778    0.984523
      4          7           0        0.723786   -1.820786    0.744456
      5          1           0        0.182031   -1.996775    1.587217
      6          1           0        0.610890   -2.600529    0.103800
      7          8           0       -0.422154    1.860117   -0.680957
      8          1           0       -0.581686    1.936385   -1.629933
      9          1           0       -1.302407    1.828898   -0.206747
     10          7           0       -1.585032   -1.244596   -1.440393
     11          1           0       -1.632630   -0.939285   -2.405463
     12          1           0       -1.653817   -2.256537   -1.435208
     13          1           0       -2.368256   -0.857911   -0.912287
     14          1           0        1.712359   -1.732184    0.987337
 ---------------------------------------------------------------------

 SCF Done:  E(RB3LYP) =  -1229.60679291     A.U. after    1 cycles

 The electronic state is 1-A.
 Alpha  occ. eigenvalues -- -101.46945-101.43156 -19.19888 -14.41277 -14.34054
 Alpha  occ. eigenvalues --   -9.40072  -9.36399  -7.16077  -7.15473  -7.15425
 Alpha  occ. eigenvalues --   -7.12077  -7.11972  -7.11891  -3.93593  -2.20110
 Alpha  occ. eigenvalues --   -2.18127  -2.14968  -1.07431  -0.95834  -0.89582
 Alpha  occ. eigenvalues --   -0.75720  -0.72299  -0.59380  -0.56900  -0.56630
 Alpha  occ. eigenvalues --   -0.51099  -0.50855  -0.50061  -0.44755  -0.39983
 Alpha  occ. eigenvalues --   -0.37542  -0.34165  -0.31443  -0.30968  -0.27910
 Alpha  occ. eigenvalues --   -0.27280  -0.26348  -0.26038  -0.25069  -0.23235
 Alpha  occ. eigenvalues --   -0.20184
 Alpha virt. eigenvalues --   -0.08246  -0.02941  -0.00170   0.02619   0.05866
 Alpha virt. eigenvalues --    0.06138   0.07627   0.08686   0.09268   0.10866
 Alpha virt. eigenvalues --    0.12773   0.13557   0.16788   0.19364   0.23182

 Mulliken charges:
               1
     1  Pt   0.419759
     2  Cl  -0.449941
     3  Cl  -0.605007
     4  N   -0.478729
     5  H    0.293905
     6  H    0.267602
     7  O   -0.499137
     8  H    0.344424
     9  H    0.345677
    10  N   -0.644690
    11  H    0.236786
    12  H    0.224562
    13  H    0.262093
    14  H    0.282696
 Sum of Mulliken charges =   0.00000

 Dipole moment (field-independent basis, Debye):
    X=             -0.5575    Y=             -5.7347    Z=             -3.9057  Tot=              6.9607
 Quadrupole moment (field-independent basis, Debye-Ang):
   XX=            -85.4482   YY=            -54.6903   ZZ=            -63.5896
   XY=             -3.3183   XZ=             11.8376   YZ=             -7.1087

  Exact polarizability: 120.512   1.684  90.021  -0.206   1.871  82.136
 Approx polarizability: 185.636   4.367 137.073  -5.700   2.504 132.609

 ******    1 imaginary frequencies (negative Signs) ******

                      1                      2                      3
                      A                      A                      A
 Frequencies --   -177.5586                67.1687                90.4734
 Red. masses --      8.4366                 5.4771                 5.4987
 Frc consts  --      0.1567                 0.0146                 0.0265
 IR Inten    --     36.4064                 9.7312                 3.2422

                      4                      5                      6
                      A                      A                      A
 Frequencies --    126.0726               133.3876               155.1400
 Red. masses --      8.0133                 1.0521                 1.0949
 Frc consts  --      0.0750                 0.0110                 0.0155
 IR Inten    --      1.6410                 0.3673                 2.3853

                      7                      8                      9
                      A                      A                      A
 Frequencies --    162.5351               177.2729               210.0400
 Red. masses --      4.4218                 4.4039                 3.5601
 Frc consts  --      0.0688                 0.0815                 0.0925
 IR Inten    --      1.0812                15.5512                13.8649

                     10                     11                     12
                      A                      A                      A
 Frequencies --    226.3530               275.0104               326.7437
 Red. masses --      4.4628                 6.4055                11.4257
 Frc consts  --      0.1347                 0.2854                 0.7187
 IR Inten    --     13.5475                52.7247                20.5699

                     13                     14                     15
                      A                      A                      A
 Frequencies --    351.4553               386.0661               431.1156
 Red. masses --      1.1846                 1.2547                 3.7095
 Frc consts  --      0.0862                 0.1102                 0.4062
 IR Inten    --     78.0765                12.3244                18.5714

                     16                     17                     18
                      A                      A                      A
 Frequencies --    531.9368               539.6070               709.1411
 Red. masses --      1.8222                 1.8334                 1.1392
 Frc consts  --      0.3038                 0.3145                 0.3375
 IR Inten    --     46.0441                37.0988               100.9665

                     19                     20                     21
                      A                      A                      A
 Frequencies --    798.3982               822.2655               926.1910
 Red. masses --      1.1706                 1.1858                 1.0822
 Frc consts  --      0.4396                 0.4724                 0.5470
 IR Inten    --     40.3379                12.2254               158.4392

                     22                     23                     24
                      A                      A                      A
 Frequencies --   1094.2512              1283.7390              1567.5001
 Red. masses --      1.1734                 1.1775                 1.0727
 Frc consts  --      0.8278                 1.1433                 1.5529
 IR Inten    --    133.5876               137.8535                43.7812

                     25                     26                     27
                      A                      A                      A
 Frequencies --   1634.7959              1644.7357              1660.0384
 Red. masses --      1.0581                 1.0603                 1.0595
 Frc consts  --      1.6661                 1.6899                 1.7203
 IR Inten    --     16.3156                22.8514                29.7338

                     28                     29                     30
                      A                      A                      A
 Frequencies --   1672.5887              3159.6992              3374.3208
 Red. masses --      1.0653                 1.0637                 1.0387
 Frc consts  --      1.7559                 6.2570                 6.9682
 IR Inten    --      8.9385               415.3794                75.8357

                     31                     32                     33
                      A                      A                      A
 Frequencies --   3389.4697              3498.2475              3529.6396
 Red. masses --      1.0360                 1.0816                 1.0791
 Frc consts  --      7.0125                 7.7987                 7.9207
 IR Inten    --     14.9764                39.9044                27.9195

                     34                     35                     36
                      A                      A                      A
 Frequencies --   3541.7187              3580.6877              3797.4672
 Red. masses --      1.0920                 1.0908                 1.0665
 Frc consts  --      8.0706                 8.2402                 9.0617
 IR Inten    --     29.4348                10.6727                84.5791

 - Thermochemistry -
 -------------------
 Temperature   298.150 Kelvin.  Pressure   1.00000 Atm.
 Atom     1 has atomic number 78 and mass 194.96480

 Molecular mass:   316.96617 amu.
 Principal axes and moments of inertia in atomic units:
                           1         2         3
     Eigenvalues --   941.784781975.318382245.09494
           X            0.99926  -0.00074   0.03852
           Y            0.00229   0.99919  -0.04016
           Z           -0.03846   0.04022   0.99845
 This molecule is an asymmetric top.
 Rotational symmetry number  1.
 Warning -- assumption of classical behavior for rotation
           may cause significant error
 Rotational temperatures (Kelvin)      0.09197     0.04385     0.03858
 Rotational constants (GHZ):           1.91630     0.91365     0.80386
    1 imaginary frequencies ignored.
 Zero-point vibrational energy     274395.1 (Joules/Mol)
                                   65.58200 (Kcal/Mol)
 Warning -- explicit consideration of  16 degrees of freedom as
           vibrations may cause significant error
 Vibrational temperatures:     96.64   130.17   181.39   191.91   223.21
          (Kelvin)            233.85   255.06   302.20   325.67   395.68
                              470.11   505.67   555.46   620.28   765.34
                              776.37  1020.29  1148.72  1183.06  1332.58
                             1574.38  1847.01  2255.28  2352.10  2366.40
                             2388.42  2406.48  4546.10  4854.89  4876.68
                             5033.19  5078.36  5095.74  5151.80  5463.70

 Zero-point correction=                           0.104512 (Hartree/Particle)
 Thermal correction to Energy=                    0.115736
 Thermal correction to Enthalpy=                  0.116680
 Thermal correction to Gibbs Free Energy=         0.066241
 Sum of electronic and zero-point Energies=          -1229.502281
 Sum of electronic and thermal Energies=             -1229.491057
 Sum of electronic and thermal Enthalpies=           -1229.490113
 Sum of electronic and thermal Free Energies=        -1229.540552

                     E (Thermal)             CV                S
                      KCal/Mol        Cal/Mol-Kelvin    Cal/Mol-Kelvin
 Total                   72.626             36.394            106.159
 Electronic               0.000              0.000              0.000
 Translational            0.889              2.981             43.157
 Rotational               0.889              2.981             29.814
 Vibrational             70.848             30.433             33.188
 Vibration     1          0.598              1.970              4.235
 Vibration     2          0.602              1.956              3.650
 Vibration     3          0.611              1.927              3.005
 Vibration     4          0.613              1.920              2.897
 Vibration     5          0.620              1.897              2.608
 Vibration     6          0.623              1.888              2.520
 Vibration     7          0.628              1.870              2.357
 Vibration     8          0.642              1.825              2.043
 Vibration     9          0.650              1.801              1.908
 Vibration    10          0.677              1.720              1.565
 Vibration    11          0.710              1.622              1.276
 Vibration    12          0.728              1.572              1.160
 Vibration    13          0.755              1.500              1.015
 Vibration    14          0.792              1.402              0.855
 Vibration    15          0.887              1.179              0.583
 Vibration    16          0.895              1.162              0.566

 Optimization completed.
    -- Stationary point found.
 Normal termination of Gaussian 09 at Mon Dec 28 13:24:45 2020.
