 Gaussian 09, Revision D.01,
 Gaussian 09:  ES64L-G09RevD.01 24-Apr-2013

 ----------------------------------------------------------------------
 #p opt=(calcall,ts,noeigen) b3lyp scrf=(smd,solvent=water) geom=connec
 tivity def2tzvp em=gd3bj
 ----------------------------------------------------------------------

 -------------------
 Title Card Required
 -------------------
 Symbolic Z-matrix:
 Charge =  0 Multiplicity = 1

 SCF Done:  E(RB3LYP) =  -1229.63141485     A.U. after   13 cycles
 SCF Done:  E(RB3LYP) =  -1229.64320271     A.U. after   13 cycles
 SCF Done:  E(RB3LYP) =  -1229.64984693     A.U. after   13 cycles
 SCF Done:  E(RB3LYP) =  -1229.65244718     A.U. after   13 cycles
 SCF Done:  E(RB3LYP) =  -1229.65284410     A.U. after   11 cycles
 SCF Done:  E(RB3LYP) =  -1229.65262744     A.U. after   11 cycles
 SCF Done:  E(RB3LYP) =  -1229.65214027     A.U. after   12 cycles
 SCF Done:  E(RB3LYP) =  -1229.65274203     A.U. after   12 cycles
 SCF Done:  E(RB3LYP) =  -1229.65294599     A.U. after   12 cycles
 SCF Done:  E(RB3LYP) =  -1229.65287483     A.U. after   12 cycles
 SCF Done:  E(RB3LYP) =  -1229.65354855     A.U. after   12 cycles
 SCF Done:  E(RB3LYP) =  -1229.65362048     A.U. after   12 cycles
 SCF Done:  E(RB3LYP) =  -1229.65360035     A.U. after   11 cycles
 SCF Done:  E(RB3LYP) =  -1229.65363199     A.U. after   11 cycles
 SCF Done:  E(RB3LYP) =  -1229.65363434     A.U. after   10 cycles
 SCF Done:  E(RB3LYP) =  -1229.65364270     A.U. after   10 cycles
 SCF Done:  E(RB3LYP) =  -1229.65364938     A.U. after    9 cycles
 SCF Done:  E(RB3LYP) =  -1229.65365261     A.U. after    8 cycles
 SCF Done:  E(RB3LYP) =  -1229.65365425     A.U. after    7 cycles
 SCF Done:  E(RB3LYP) =  -1229.65365509     A.U. after    6 cycles
 Optimization completed.
    -- Stationary point found.

                         Standard orientation:
 ---------------------------------------------------------------------
 Center     Atomic      Atomic             Coordinates (Angstroms)
 Number     Number       Type             X           Y           Z
 ---------------------------------------------------------------------
      1         78           0       -0.058309   -0.110390   -0.065405
      2          7           0       -0.407788   -2.134708   -0.201244
      3          1           0       -0.004986   -2.522403   -1.051826
      4          1           0        0.002851   -2.625788    0.589568
      5          7           0        1.966994   -0.662759    1.550076
      6          1           0        2.460901    0.209515    1.707207
      7          1           0        1.438207   -0.873051    2.389107
      8         17           0       -2.333420    0.189231    0.182089
      9         17           0        0.441195    2.173760    0.061768
     10          8           0        1.983308   -0.312125   -1.385075
     11          1           0        2.636158   -0.567071   -0.718166
     12          1           0        2.151638    0.628877   -1.544587
     13          1           0       -1.406425   -2.331767   -0.207547
     14          1           0        2.656667   -1.399482    1.431005
 ---------------------------------------------------------------------

 The electronic state is 1-A.
 Alpha  occ. eigenvalues -- -101.47338-101.46032 -19.15329 -14.36412 -14.30690
 Alpha  occ. eigenvalues --   -9.40468  -9.39245  -7.16452  -7.15862  -7.15857
 Alpha  occ. eigenvalues --   -7.15129  -7.14690  -7.14668  -3.91806  -2.17812
 Alpha  occ. eigenvalues --   -2.16715  -2.13298  -1.03256  -0.90960  -0.86219
 Alpha  occ. eigenvalues --   -0.76221  -0.75078  -0.54731  -0.51676  -0.51516
 Alpha  occ. eigenvalues --   -0.47217  -0.47187  -0.43241  -0.42443  -0.38291
 Alpha  occ. eigenvalues --   -0.34591  -0.33172  -0.32230  -0.31764  -0.30682
 Alpha  occ. eigenvalues --   -0.29289  -0.26947  -0.23777  -0.23095  -0.22743
 Alpha  occ. eigenvalues --   -0.20264
 Alpha virt. eigenvalues --   -0.07210   0.00778   0.04146   0.04987   0.07265
 Alpha virt. eigenvalues --    0.09478   0.10832   0.11267   0.11676   0.12446
 Alpha virt. eigenvalues --    0.13775   0.15005   0.17297   0.21284   0.25552

 Mulliken charges:
               1
     1  Pt   0.452158
     2  N   -0.534914
     3  H    0.313547
     4  H    0.311811
     5  N   -0.721832
     6  H    0.273120
     7  H    0.279655
     8  Cl  -0.506181
     9  Cl  -0.551113
    10  O   -0.644573
    11  H    0.381071
    12  H    0.375602
    13  H    0.296899
    14  H    0.274751
 Sum of Mulliken charges =   0.00000

 Dipole moment (field-independent basis, Debye):
    X=              8.8845    Y=            -11.5212    Z=              1.7291  Tot=             14.6514
 Quadrupole moment (field-independent basis, Debye-Ang):
   XX=            -63.9315   YY=            -62.7713   ZZ=            -66.5066
   XY=              1.0700   XZ=              5.2456   YZ=             -3.5010

  Exact polarizability: 140.836   1.650 135.925   1.831  -1.070 111.601
 Approx polarizability: 156.126   0.704 152.212  -0.448   0.048 120.356

 ******    1 imaginary frequencies (negative Signs) ******

                      1                      2                      3
                      A                      A                      A
 Frequencies --   -212.1111                54.4491                88.4169
 Red. masses --      4.1681                 3.1541                 3.6072
 Frc consts  --      0.1105                 0.0055                 0.0166
 IR Inten    --     30.9857                26.5024                73.2209

                      4                      5                      6
                      A                      A                      A
 Frequencies --     95.9410               133.1004               137.6244
 Red. masses --      5.0332                 1.2102                11.6772
 Frc consts  --      0.0273                 0.0126                 0.1303
 IR Inten    --     34.9426                19.3381                 4.1420

                      7                      8                      9
                      A                      A                      A
 Frequencies --    143.1034               152.0184               177.2118
 Red. masses --      3.6341                 3.6151                 1.3274
 Frc consts  --      0.0438                 0.0492                 0.0246
 IR Inten    --     37.8674                36.1622                 6.8878

                     10                     11                     12
                      A                      A                      A
 Frequencies --    192.8208               202.7436               233.0633
 Red. masses --      1.9645                 1.4030                 3.1576
 Frc consts  --      0.0430                 0.0340                 0.1011
 IR Inten    --     24.3778                71.1600                 2.5032

                     13                     14                     15
                      A                      A                      A
 Frequencies --    251.6097               310.1242               320.4028
 Red. masses --      1.4297                34.0030                18.2111
 Frc consts  --      0.0533                 1.9268                 1.1015
 IR Inten    --    180.5491                59.6411                35.7761

                     16                     17                     18
                      A                      A                      A
 Frequencies --    351.2738               493.9832               514.8888
 Red. masses --      1.2149                 4.1317                 1.0811
 Frc consts  --      0.0883                 0.5940                 0.1689
 IR Inten    --     76.2219                16.8754                41.7195

                     19                     20                     21
                      A                      A                      A
 Frequencies --    557.5467               773.8780               794.3978
 Red. masses --      1.1041                 1.1617                 1.1858
 Frc consts  --      0.2022                 0.4099                 0.4409
 IR Inten    --    335.0919                35.2911                42.1281

                     22                     23                     24
                      A                      A                      A
 Frequencies --   1059.1431              1293.2556              1594.8691
 Red. masses --      1.1791                 1.1773                 1.0795
 Frc consts  --      0.7793                 1.1601                 1.6178
 IR Inten    --    187.8608               138.2639               141.9328

                     25                     26                     27
                      A                      A                      A
 Frequencies --   1611.1613              1613.5799              1619.6010
 Red. masses --      1.0563                 1.0659                 1.0571
 Frc consts  --      1.6156                 1.6352                 1.6338
 IR Inten    --     80.5920                27.6645                46.9126

                     28                     29                     30
                      A                      A                      A
 Frequencies --   1622.7580              3434.0735              3454.5286
 Red. masses --      1.0636                 1.0282                 1.0268
 Frc consts  --      1.6502                 7.1441                 7.2196
 IR Inten    --     25.6551                26.6817                 4.4452

                     31                     32                     33
                      A                      A                      A
 Frequencies --   3524.9440              3533.5536              3566.5916
 Red. masses --      1.0917                 1.0916                 1.0903
 Frc consts  --      7.9922                 8.0305                 8.1716
 IR Inten    --     85.3260                84.9778                32.5986

                     34                     35                     36
                      A                      A                      A
 Frequencies --   3583.3152              3723.0527              3805.7959
 Red. masses --      1.0911                 1.0472                 1.0796
 Frc consts  --      8.2540                 8.5522                 9.2134
 IR Inten    --     40.5375                75.5743               177.8882

 - Thermochemistry -
 -------------------
 Temperature   298.150 Kelvin.  Pressure   1.00000 Atm.
 Atom     1 has atomic number 78 and mass 194.96480

 Molecular mass:   316.96617 amu.
 Principal axes and moments of inertia in atomic units:
                           1         2         3
     Eigenvalues --  1230.070311527.636082172.79683
           X            0.99929  -0.02711   0.02631
           Y            0.02759   0.99945  -0.01827
           Z           -0.02580   0.01898   0.99949
 This molecule is an asymmetric top.
 Rotational symmetry number  1.
 Warning -- assumption of classical behavior for rotation
           may cause significant error
 Rotational temperatures (Kelvin)      0.07041     0.05670     0.03986
 Rotational constants (GHZ):           1.46719     1.18139     0.83061
    1 imaginary frequencies ignored.
 Zero-point vibrational energy     269272.3 (Joules/Mol)
                                   64.35764 (Kcal/Mol)
 Warning -- explicit consideration of  18 degrees of freedom as
           vibrations may cause significant error
 Vibrational temperatures:     78.34   127.21   138.04   191.50   198.01
          (Kelvin)            205.89   218.72   254.97   277.43   291.70
                              335.33   362.01   446.20   460.99   505.40
                              710.73   740.81   802.18  1113.44  1142.96
                             1523.87  1860.70  2294.66  2318.10  2321.58
                             2330.24  2334.78  4940.86  4970.29  5071.60
                             5083.99  5131.52  5155.58  5356.64  5475.68

 Zero-point correction=                           0.102560 (Hartree/Particle)
 Thermal correction to Energy=                    0.115084
 Thermal correction to Enthalpy=                  0.116029
 Thermal correction to Gibbs Free Energy=         0.062601
 Sum of electronic and zero-point Energies=          -1229.551095
 Sum of electronic and thermal Energies=             -1229.538571
 Sum of electronic and thermal Enthalpies=           -1229.537627
 Sum of electronic and thermal Free Energies=        -1229.591054

                     E (Thermal)             CV                S
                      KCal/Mol        Cal/Mol-Kelvin    Cal/Mol-Kelvin
 Total                   72.217             39.140            112.448
 Electronic               0.000              0.000              0.000
 Translational            0.889              2.981             43.157
 Rotational               0.889              2.981             29.791
 Vibrational             70.439             33.178             39.500
 Vibration     1          0.596              1.976              4.649
 Vibration     2          0.601              1.957              3.695
 Vibration     3          0.603              1.952              3.535
 Vibration     4          0.613              1.920              2.901
 Vibration     5          0.614              1.916              2.837
 Vibration     6          0.616              1.910              2.762
 Vibration     7          0.619              1.900              2.647
 Vibration     8          0.628              1.870              2.358
 Vibration     9          0.635              1.850              2.201
 Vibration    10          0.639              1.836              2.108
 Vibration    11          0.654              1.790              1.855
 Vibration    12          0.664              1.760              1.719
 Vibration    13          0.699              1.654              1.362
 Vibration    14          0.706              1.635              1.308
 Vibration    15          0.728              1.573              1.160
 Vibration    16          0.850              1.263              0.673
 Vibration    17          0.870              1.217              0.622
 Vibration    18          0.913              1.123              0.529

 Normal termination of Gaussian 09 at Mon Dec 28 12:56:58 2020.
